                         Program Version 5.0.4 -  RELEASE  -
|  1> %pal nprocs 28 end
|  2> ! PBE0 def2-TZVP D4 CPCM(Toluene) Freq OPT
|  3> %maxcore 3000
|  4> %freq temp 433.15 end
|  5>
|  6> * xyz 0 1
|  7> C        2.602996000      0.457633000      1.712544000
|  8> N        1.526826000      0.027834000      0.844170000
|  9> C        0.754746000     -1.042763000      1.192871000
| 10> O        0.993029000     -1.698532000      2.197340000
| 11> C       -0.440708000     -1.356267000      0.303788000
| 12> C       -1.599320000     -0.593490000      0.878748000
| 13> C       -2.425656000      0.293075000      0.255541000
| 14> N       -2.578989000      0.617472000     -1.078925000
| 15> C       -1.973167000     -0.063194000     -2.188000000
| 16> C       -3.571185000      1.578064000     -1.216815000
| 17> C       -4.041211000      1.866426000      0.005835000
| 18> N       -3.344126000      1.091496000      0.913746000
| 19> C       -3.516536000      1.087855000      2.332840000
| 20> C       -0.667362000     -2.862579000      0.244450000
| 21> C        1.252431000      0.860444000     -0.274548000
| 22> C        1.859421000      0.600756000     -1.497381000
| 23> C        1.615629000      1.428818000     -2.583098000
| 24> C        0.772149000      2.523205000     -2.447221000
| 25> C        0.176802000      2.789659000     -1.222058000
| 26> C        0.419588000      1.963257000     -0.135552000
| 27> H        2.767541000     -0.313928000      2.461143000
| 28> H        2.352200000      1.397579000      2.214711000
| 29> H        3.515413000      0.607611000      1.131046000
| 30> H       -2.045473000     -1.146242000     -2.059673000
| 31> H       -2.512329000      0.210623000     -3.094559000
| 32> H       -0.924502000      0.212946000     -2.318708000
| 33> H       -3.842683000      1.969015000     -2.182281000
| 34> H       -4.806093000      2.556589000      0.318395000
| 35> H       -3.872506000      0.115246000      2.689128000
| 36> H       -2.570103000      1.307770000      2.838108000
| 37> H       -4.247251000      1.848889000      2.602582000
| 38> H       -0.905323000     -3.252242000      1.235046000
| 39> H        0.217938000     -3.389909000     -0.123738000
| 40> H       -1.506189000     -3.078304000     -0.420741000
| 41> H        2.513064000     -0.259413000     -1.589863000
| 42> H        2.083980000      1.217727000     -3.537643000
| 43> H        0.578876000      3.168155000     -3.296749000
| 44> H       -0.486512000      3.639980000     -1.112536000
| 45> H       -0.049206000      2.153436000      0.822149000
| 46> H       -1.750227000     -0.715343000      1.944650000
| 47> H       -0.216446000     -0.997827000     -0.698825000
| 48> *
| 49>
| 50>                          ****END OF INPUT****
 Total Charge           Charge          ....    0
 Multiplicity           Mult            ....    1
 Number of Electrons    NEL             ....  146
Dispersion correction           -0.049811856
FINAL SINGLE POINT ENERGY      -861.154372699140
Dispersion correction            ... Starting D4
                    ***********************HURRAY********************

CARTESIAN COORDINATES (ANGSTROEM)
---------------------------------
  C    -1.146171   -3.228280    1.324479
  N    -0.870230   -2.672622    0.016006
  C    -1.161694   -3.392871   -1.106596
  O    -1.591572   -4.535630   -1.035360
  C    -0.972537   -2.696709   -2.447278
  C    -2.288162   -2.048721   -2.769858
  C    -2.541009   -0.743752   -3.070445
  N    -1.693025    0.311337   -3.348647
  C    -0.274276    0.223986   -3.548665
  C    -2.436504    1.453359   -3.611991
  C    -3.735133    1.137038   -3.500336
  N    -3.810543   -0.201567   -3.163734
  C    -5.005869   -0.951748   -2.935550
  C    -0.509834   -3.700645   -3.496995
  C    -0.431710   -1.320947   -0.012292
  C     0.927723   -1.032849    0.000000
  C     1.357842    0.285839    0.001608
  C     0.430893    1.319455    0.000000
  C    -0.926769    1.030937    0.001172
  C    -1.358615   -0.286606   -0.000000
  H    -1.373857   -4.285178    1.206335
  H    -1.999419   -2.727266    1.793065
  H    -0.275016   -3.109098    1.972620
  H    -0.028442   -0.627235   -4.188789
  H     0.058607    1.134177   -4.047028
  H     0.270490    0.132834   -2.606299
  H    -1.961041    2.389405   -3.849579
  H    -4.617402    1.741478   -3.624148
  H    -5.123343   -1.750358   -3.675903
  H    -4.990352   -1.411233   -1.941528
  H    -5.862200   -0.282362   -3.003049
  H    -1.267815   -4.469944   -3.650037
  H     0.420199   -4.195161   -3.200477
  H    -0.346143   -3.185399   -4.445905
  H     1.640301   -1.850121   -0.002322
  H     2.419169    0.506430    0.002248
  H     0.767167    2.349959   -0.002434
  H    -1.654152    1.834620   -0.005272
  H    -2.415246   -0.524376   -0.011974
  H    -3.154925   -2.692852   -2.682810
  H    -0.201194   -1.938859   -2.325922
  X    -0.000000   -0.000000    0.000000
  X    -0.000000   -0.000000    0.000000
  X     0.000000    0.000000    0.000000

 Multiplicity           Mult            ....    1
 Number of Electrons    NEL             ....  146
 Basis Dimension        Dim             ....  746

ORBITAL ENERGIES
----------------

  NO   OCC          E(Eh)            E(eV)
   0   2.0000     -19.157327      -521.2974
   1   2.0000     -14.422048      -392.4439
   2   2.0000     -14.420639      -392.4055
   3   2.0000     -14.409286      -392.0966
   4   2.0000     -10.307057      -280.4693
   5   2.0000     -10.284416      -279.8532
   6   2.0000     -10.267936      -279.4048
   7   2.0000     -10.252166      -278.9756
   8   2.0000     -10.251188      -278.9490
   9   2.0000     -10.245712      -278.8000
  10   2.0000     -10.243814      -278.7483
  11   2.0000     -10.239152      -278.6215
  12   2.0000     -10.233649      -278.4718
  13   2.0000     -10.232712      -278.4462
  14   2.0000     -10.232320      -278.4356
  15   2.0000     -10.232077      -278.4290
  16   2.0000     -10.230960      -278.3986
  17   2.0000     -10.222947      -278.1805
  18   2.0000     -10.193973      -277.3921
  19   2.0000     -10.181811      -277.0612
  20   2.0000      -1.059423       -28.8284
  21   2.0000      -1.053278       -28.6612
  22   2.0000      -0.969186       -26.3729
  23   2.0000      -0.945996       -25.7418
  24   2.0000      -0.884627       -24.0719
  25   2.0000      -0.826312       -22.4851
  26   2.0000      -0.797065       -21.6892
  27   2.0000      -0.779921       -21.2227
  28   2.0000      -0.775427       -21.1004
  29   2.0000      -0.769750       -20.9460
  30   2.0000      -0.721990       -19.6464
  31   2.0000      -0.706546       -19.2261
  32   2.0000      -0.687027       -18.6950
  33   2.0000      -0.650829       -17.7100
  34   2.0000      -0.636692       -17.3253
  35   2.0000      -0.631411       -17.1816
  36   2.0000      -0.619356       -16.8535
  37   2.0000      -0.577449       -15.7132
  38   2.0000      -0.570369       -15.5205
  39   2.0000      -0.535822       -14.5804
  40   2.0000      -0.522343       -14.2137
  41   2.0000      -0.512779       -13.9534
  42   2.0000      -0.495518       -13.4837
  43   2.0000      -0.494323       -13.4512
  44   2.0000      -0.487371       -13.2620
  45   2.0000      -0.472189       -12.8489
  46   2.0000      -0.465398       -12.6641
  47   2.0000      -0.458738       -12.4829
  48   2.0000      -0.457987       -12.4624
  49   2.0000      -0.452338       -12.3087
  50   2.0000      -0.448842       -12.2136
  51   2.0000      -0.443331       -12.0636
  52   2.0000      -0.437246       -11.8981
  53   2.0000      -0.426979       -11.6187
  54   2.0000      -0.413032       -11.2392
  55   2.0000      -0.406936       -11.0733
  56   2.0000      -0.402509       -10.9528
  57   2.0000      -0.397670       -10.8212
  58   2.0000      -0.396123       -10.7790
  59   2.0000      -0.389322       -10.5940
  60   2.0000      -0.383583       -10.4378
  61   2.0000      -0.373183       -10.1548
  62   2.0000      -0.367088        -9.9890
  63   2.0000      -0.359729        -9.7887
  64   2.0000      -0.357964        -9.7407
  65   2.0000      -0.335976        -9.1424
  66   2.0000      -0.290781        -7.9126
  67   2.0000      -0.281736        -7.6664
  68   2.0000      -0.280934        -7.6446
  69   2.0000      -0.272219        -7.4074
  70   2.0000      -0.256483        -6.9793
  71   2.0000      -0.251825        -6.8525
  72   2.0000      -0.158544        -4.3142
  73   0.0000      -0.017409        -0.4737
  74   0.0000      -0.015354        -0.4178
  75   0.0000       0.031356         0.8533
  76   0.0000       0.038915         1.0589
  77   0.0000       0.041593         1.1318

MULLIKEN ATOMIC CHARGES
-----------------------
   0 C :   -0.310226
   1 N :   -0.002768
   2 C :    0.183353
   3 O :   -0.444263
   4 C :    0.115187
   5 C :   -0.550429
   6 C :    0.109484
   7 N :    0.049485
   8 C :   -0.363478
   9 C :   -0.195151
  10 C :   -0.163993
  11 N :    0.027612
  12 C :   -0.339239
  13 C :   -0.387002
  14 C :    0.039817
  15 C :   -0.204100
  16 C :   -0.104394
  17 C :   -0.140332
  18 C :   -0.101855
  19 C :   -0.159374
  20 H :    0.164800
  21 H :    0.134005
  22 H :    0.139428
  23 H :    0.156038
  24 H :    0.150885
  25 H :    0.163847
  26 H :    0.163514
  27 H :    0.167525
  28 H :    0.146769
  29 H :    0.145431
  30 H :    0.153445
  31 H :    0.127912
  32 H :    0.117627
  33 H :    0.114003
  34 H :    0.133935
  35 H :    0.134474
  36 H :    0.134886
  37 H :    0.128467
  38 H :    0.132078
  39 H :    0.134654
  40 H :    0.097946
Sum of atomic charges:   -0.0000000

LOEWDIN ATOMIC CHARGES
----------------------
   0 C :   -0.279587
   1 N :    0.224179
   2 C :   -0.397013
   3 O :    0.032239
   4 C :   -0.266561
   5 C :   -0.231950
   6 C :   -0.252895
   7 N :    0.229271
   8 C :   -0.280428
   9 C :   -0.235149
  10 C :   -0.232532
  11 N :    0.223788
  12 C :   -0.286570
  13 C :   -0.283999
  14 C :   -0.189776
  15 C :   -0.113947
  16 C :   -0.148802
  17 C :   -0.149718
  18 C :   -0.139408
  19 C :   -0.096677
  20 H :    0.131791
  21 H :    0.119339
  22 H :    0.121879
  23 H :    0.128817
  24 H :    0.130097
  25 H :    0.124671
  26 H :    0.144177
  27 H :    0.144730
  28 H :    0.123144
  29 H :    0.123661
  30 H :    0.129679
  31 H :    0.126805
  32 H :    0.121279
  33 H :    0.118680
  34 H :    0.157129
  35 H :    0.151092
  36 H :    0.150240
  37 H :    0.151463
  38 H :    0.159420
  39 H :    0.150995
  40 H :    0.166445

  Mayer bond orders larger than 0.100000
B(  0-C ,  1-N ) :   0.9211 B(  0-C , 20-H ) :   0.9511 B(  0-C , 21-H ) :   0.9653
B(  0-C , 22-H ) :   0.9655 B(  1-N ,  2-C ) :   1.2329 B(  1-N , 14-C ) :   0.8411
B(  2-C ,  3-O ) :   1.9817 B(  2-C ,  4-C ) :   0.9278 B(  4-C ,  5-C ) :   0.9676
B(  4-C , 13-C ) :   0.9365 B(  4-C , 40-H ) :   0.9252 B(  5-C ,  6-C ) :   1.5581
B(  5-C , 39-H ) :   0.9756 B(  6-C ,  7-N ) :   1.1672 B(  6-C , 11-N ) :   1.1973
B(  7-N ,  8-C ) :   0.9345 B(  7-N ,  9-C ) :   1.0891 B(  8-C , 23-H ) :   0.9595
B(  8-C , 24-H ) :   0.9582 B(  8-C , 25-H ) :   0.9650 B(  9-C , 10-C ) :   1.7567
B(  9-C , 26-H ) :   0.9578 B( 10-C , 11-N ) :   1.0994 B( 10-C , 27-H ) :   0.9518
B( 11-N , 12-C ) :   0.9539 B( 12-C , 28-H ) :   0.9570 B( 12-C , 29-H ) :   0.9571
B( 12-C , 30-H ) :   0.9622 B( 13-C , 31-H ) :   0.9764 B( 13-C , 32-H ) :   0.9670
B( 13-C , 33-H ) :   0.9719 B( 14-C , 15-C ) :   1.4540 B( 14-C , 19-C ) :   1.4623
B( 15-C , 16-C ) :   1.4030 B( 15-C , 34-H ) :   0.9807 B( 16-C , 17-C ) :   1.3756
B( 16-C , 35-H ) :   0.9763 B( 17-C , 18-C ) :   1.3865 B( 17-C , 36-H ) :   0.9767
B( 18-C , 19-C ) :   1.4112 B( 18-C , 37-H ) :   0.9696 B( 19-C , 38-H ) :   0.9512

Dispersion correction           -0.049811112
FINAL SINGLE POINT ENERGY      -861.154372578126

DIPOLE MOMENT
-------------
                                X             Y             Z
Electronic contribution:      1.71463       3.77779      -0.57476
Nuclear contribution   :     -2.60092      -1.85991      -1.04568
                        -----------------------------------------
Total Dipole Moment    :     -0.88629       1.91788      -1.62044
                        -----------------------------------------
Magnitude (a.u.)       :      2.66263
Magnitude (Debye)      :      6.76787

Dispersion correction in the Hessian             ... Starting D4

VIBRATIONAL FREQUENCIES
-----------------------

Scaling factor for frequencies =  1.000000000  (already applied!)

   0:         0.00 cm**-1
   1:         0.00 cm**-1
   2:         0.00 cm**-1
   3:         0.00 cm**-1
   4:         0.00 cm**-1
   5:         0.00 cm**-1
   6:        24.79 cm**-1
   7:        37.14 cm**-1
   8:        56.52 cm**-1
   9:        59.86 cm**-1
  10:        75.31 cm**-1
  11:        88.01 cm**-1
  12:        94.46 cm**-1
  13:       106.98 cm**-1
  14:       123.15 cm**-1
  15:       141.10 cm**-1
  16:       155.51 cm**-1
  17:       183.49 cm**-1
  18:       190.88 cm**-1
  19:       214.47 cm**-1
  20:       222.63 cm**-1
  21:       229.38 cm**-1
  22:       240.00 cm**-1
  23:       301.72 cm**-1
  24:       309.23 cm**-1
  25:       321.23 cm**-1
  26:       348.98 cm**-1
  27:       370.31 cm**-1
  28:       420.68 cm**-1
  29:       422.55 cm**-1
  30:       439.32 cm**-1
  31:       474.84 cm**-1
  32:       527.58 cm**-1
  33:       578.69 cm**-1
  34:       582.21 cm**-1
  35:       594.02 cm**-1
  36:       628.68 cm**-1
  37:       636.83 cm**-1
  38:       649.10 cm**-1
  39:       668.96 cm**-1
  40:       702.23 cm**-1
  41:       718.49 cm**-1
  42:       728.78 cm**-1
  43:       755.84 cm**-1
  44:       779.14 cm**-1
  45:       786.62 cm**-1
  46:       800.63 cm**-1
  47:       837.90 cm**-1
  48:       859.80 cm**-1
  49:       909.44 cm**-1
  50:       945.13 cm**-1
  51:       955.65 cm**-1
  52:       992.16 cm**-1
  53:      1011.63 cm**-1
  54:      1015.39 cm**-1
  55:      1025.46 cm**-1
  56:      1050.01 cm**-1
  57:      1059.67 cm**-1
  58:      1062.09 cm**-1
  59:      1072.68 cm**-1
  60:      1099.46 cm**-1
  61:      1101.84 cm**-1
  62:      1109.28 cm**-1
  63:      1125.22 cm**-1
  64:      1143.35 cm**-1
  65:      1145.29 cm**-1
  66:      1146.05 cm**-1
  67:      1147.30 cm**-1
  68:      1160.45 cm**-1
  69:      1173.01 cm**-1
  70:      1186.29 cm**-1
  71:      1259.34 cm**-1
  72:      1273.07 cm**-1
  73:      1291.22 cm**-1
  74:      1316.55 cm**-1
  75:      1329.00 cm**-1
  76:      1348.12 cm**-1
  77:      1351.73 cm**-1
  78:      1361.91 cm**-1
  79:      1384.66 cm**-1
  80:      1389.11 cm**-1
  81:      1410.83 cm**-1
  82:      1418.51 cm**-1
  83:      1434.29 cm**-1
  84:      1447.08 cm**-1
  85:      1449.57 cm**-1
  86:      1460.46 cm**-1
  87:      1465.53 cm**-1
  88:      1474.85 cm**-1
  89:      1477.52 cm**-1
  90:      1479.56 cm**-1
  91:      1486.99 cm**-1
  92:      1500.24 cm**-1
  93:      1501.65 cm**-1
  94:      1509.74 cm**-1
  95:      1523.95 cm**-1
  96:      1541.05 cm**-1
  97:      1646.98 cm**-1
  98:      1648.08 cm**-1
  99:      1662.92 cm**-1
 100:      1694.19 cm**-1
 101:      1720.41 cm**-1
 102:      3024.05 cm**-1
 103:      3037.35 cm**-1
 104:      3040.70 cm**-1
 105:      3044.80 cm**-1
 106:      3074.70 cm**-1
 107:      3101.66 cm**-1
 108:      3111.23 cm**-1
 109:      3114.70 cm**-1
 110:      3130.99 cm**-1
 111:      3144.49 cm**-1
 112:      3150.29 cm**-1
 113:      3154.49 cm**-1
 114:      3174.88 cm**-1
 115:      3188.52 cm**-1
 116:      3196.30 cm**-1
 117:      3200.19 cm**-1
 118:      3204.67 cm**-1
 119:      3212.76 cm**-1
 120:      3219.50 cm**-1
 121:      3286.30 cm**-1
 122:      3307.45 cm**-1

IR SPECTRUM
-----------

 Mode   freq       eps      Int      T**2         TX        TY        TZ
       cm**-1   L/(mol*cm) km/mol    a.u.
----------------------------------------------------------------------------
  6:     24.79   0.000050    0.25  0.000626  ( 0.015396 -0.019382 -0.003644)
  7:     37.14   0.000244    1.23  0.002047  (-0.003614  0.041226  0.018273)
  8:     56.52   0.000180    0.91  0.000992  ( 0.017882 -0.013639 -0.022061)
  9:     59.86   0.000037    0.19  0.000194  (-0.009881 -0.008244 -0.005309)
 10:     75.31   0.000368    1.86  0.001526  (-0.030425  0.011147  0.021823)
 11:     88.01   0.000119    0.60  0.000421  ( 0.008487  0.016263 -0.009215)
 12:     94.46   0.000122    0.61  0.000402  (-0.017728 -0.000636  0.009324)
 13:    106.98   0.000866    4.38  0.002527  (-0.045272 -0.017798  0.012686)
 14:    123.15   0.000623    3.15  0.001578  (-0.028374 -0.024325  0.013477)
 15:    141.10   0.000274    1.38  0.000605  (-0.020836  0.012126  0.004916)
 16:    155.51   0.000275    1.39  0.000552  ( 0.014720  0.012639 -0.013240)
 17:    183.49   0.000263    1.33  0.000447  ( 0.006129 -0.015094 -0.013495)
 18:    190.88   0.000415    2.10  0.000678  ( 0.017110  0.016797 -0.010151)
 19:    214.47   0.000710    3.59  0.001032  (-0.007797  0.031157  0.000955)
 20:    222.63   0.000326    1.65  0.000457  ( 0.005413  0.019845  0.005777)
 21:    229.38   0.000032    0.16  0.000044  (-0.003280 -0.005267  0.002367)
 22:    240.00   0.000325    1.64  0.000422  (-0.006387 -0.008886  0.017388)
 23:    301.72   0.000220    1.11  0.000227  (-0.007537  0.009646 -0.008808)
 24:    309.23   0.000429    2.17  0.000433  ( 0.013159  0.015494  0.004461)
 25:    321.23   0.000828    4.19  0.000805  ( 0.024037  0.001921  0.014945)
 26:    348.98   0.001080    5.46  0.000966  ( 0.025213  0.016460  0.007708)
 27:    370.31   0.000266    1.35  0.000225  ( 0.006755  0.003339  0.012952)
 28:    420.68   0.003296   16.66  0.002445  ( 0.040492  0.027966  0.004815)
 29:    422.55   0.000107    0.54  0.000079  ( 0.008360  0.002941  0.000440)
 30:    439.32   0.000918    4.64  0.000652  ( 0.003445 -0.020153 -0.015292)
 31:    474.84   0.000796    4.02  0.000523  (-0.004625 -0.020648 -0.008693)
 32:    527.58   0.000837    4.23  0.000495  (-0.015390 -0.001528  0.015995)
 33:    578.69   0.000468    2.37  0.000252  ( 0.011907  0.002255  0.010277)
 34:    582.21   0.006730   34.01  0.003607  ( 0.044108  0.036010  0.019099)
 35:    594.02   0.002656   13.42  0.001395  ( 0.024535 -0.018948  0.020836)
 36:    628.68   0.000018    0.09  0.000009  (-0.002051  0.002077  0.000487)
 37:    636.83   0.000789    3.99  0.000387  ( 0.014974  0.011120  0.006218)
 38:    649.10   0.035263  178.20  0.016953  (-0.088116 -0.093704 -0.020201)
 39:    668.96   0.003433   17.35  0.001602  ( 0.029481  0.026947 -0.002497)
 40:    702.23   0.002848   14.39  0.001266  (-0.011121 -0.033701 -0.002498)
 41:    718.49   0.013552   68.49  0.005886  ( 0.062617  0.040886  0.017131)
 42:    728.78   0.002170   10.96  0.000929  ( 0.020886 -0.000089 -0.022198)
 43:    755.84   0.000076    0.38  0.000031  ( 0.004707 -0.001317  0.002725)
 44:    779.14   0.000530    2.68  0.000212  ( 0.002842  0.002103  0.014129)
 45:    786.62   0.000119    0.60  0.000047  (-0.000648  0.000012 -0.006837)
 46:    800.63   0.004389   22.18  0.001711  (-0.028937 -0.028994 -0.005718)
 47:    837.90   0.003309   16.72  0.001233  (-0.027732  0.004609  0.021029)
 48:    859.80   0.000056    0.28  0.000020  (-0.002759  0.003418  0.001016)
 49:    909.44   0.000189    0.95  0.000065  (-0.004164  0.001850  0.006636)
 50:    945.13   0.000336    1.70  0.000111  (-0.008008 -0.005422 -0.004174)
 51:    955.65   0.002118   10.70  0.000692  ( 0.004619 -0.022907  0.012060)
 52:    992.16   0.000050    0.25  0.000016  (-0.000230  0.000819 -0.003865)
 53:   1011.63   0.000085    0.43  0.000026  (-0.001785 -0.000839 -0.004726)
 54:   1015.39   0.002537   12.82  0.000780  ( 0.010403 -0.008063 -0.024628)
 55:   1025.46   0.000491    2.48  0.000149  ( 0.004844  0.008638 -0.007157)
 56:   1050.01   0.000470    2.38  0.000140  ( 0.010654  0.003631 -0.003618)
 57:   1059.67   0.006518   32.94  0.001919  ( 0.007491  0.037659 -0.021098)
 58:   1062.09   0.007599   38.40  0.002233  ( 0.033345  0.001304 -0.033453)
 59:   1072.68   0.006751   34.12  0.001964  ( 0.035366 -0.000375  0.026702)
 60:   1099.46   0.002253   11.39  0.000640  ( 0.014096 -0.012624 -0.016777)
 61:   1101.84   0.002328   11.76  0.000659  ( 0.020065  0.004024 -0.015506)
 62:   1109.28   0.002769   13.99  0.000779  (-0.017189  0.019109 -0.010877)
 63:   1125.22   0.012701   64.19  0.003522  ( 0.036859  0.045735 -0.008499)
 64:   1143.35   0.000323    1.63  0.000088  (-0.005152  0.004744  0.006250)
 65:   1145.29   0.000980    4.95  0.000267  (-0.001530  0.015669 -0.004370)
 66:   1146.05   0.000954    4.82  0.000260  ( 0.009441  0.002749 -0.012774)
 67:   1147.30   0.008009   40.47  0.002178  ( 0.026774  0.026464 -0.027590)
 68:   1160.45   0.002497   12.62  0.000671  ( 0.005091  0.013517 -0.021512)
 69:   1173.01   0.000036    0.18  0.000010  (-0.001892  0.001550  0.001891)
 70:   1186.29   0.000433    2.19  0.000114  ( 0.010271  0.002914 -0.000153)
 71:   1259.34   0.008912   45.04  0.002209  ( 0.022984 -0.011126 -0.039452)
 72:   1273.07   0.001931    9.76  0.000473  (-0.006813 -0.006522 -0.019607)
 73:   1291.22   0.001733    8.76  0.000419  ( 0.017581  0.000848  0.010442)
 74:   1316.55   0.013558   68.52  0.003214  ( 0.040149  0.039502  0.006420)
 75:   1329.00   0.000262    1.32  0.000061  (-0.000084 -0.006298 -0.004663)
 76:   1348.12   0.003191   16.13  0.000739  (-0.013986  0.006813 -0.022287)
 77:   1351.73   0.003318   16.77  0.000766  ( 0.021788  0.004477  0.016467)
 78:   1361.91   0.000151    0.76  0.000035  (-0.001691  0.003425  0.004480)
 79:   1384.66   0.001950    9.85  0.000439  ( 0.018943  0.008961  0.000584)
 80:   1389.11   0.022707  114.75  0.005101  ( 0.057832 -0.041636  0.004796)
 81:   1410.83   0.016443   83.10  0.003637  ( 0.037477  0.045282 -0.013492)
 82:   1418.51   0.001266    6.40  0.000278  (-0.007023 -0.005421  0.014134)
 83:   1434.29   0.028366  143.35  0.006172  (-0.069995 -0.035064 -0.006548)
 84:   1447.08   0.006881   34.77  0.001484  ( 0.013150  0.008070 -0.035296)
 85:   1449.57   0.000331    1.67  0.000071  (-0.006147  0.003810 -0.004362)
 86:   1460.46   0.003289   16.62  0.000703  (-0.011085 -0.020590 -0.012489)
 87:   1465.53   0.001915    9.68  0.000408  ( 0.006109 -0.002308 -0.019107)
 88:   1474.85   0.001743    8.81  0.000369  ( 0.004889 -0.012117 -0.014077)
 89:   1477.52   0.005095   25.75  0.001076  ( 0.031049  0.000756  0.010553)
 90:   1479.56   0.002581   13.04  0.000544  (-0.002025 -0.019120 -0.013217)
 91:   1486.99   0.001132    5.72  0.000238  ( 0.007685 -0.011247 -0.007214)
 92:   1500.24   0.005986   30.25  0.001245  (-0.019313 -0.026526 -0.012981)
 93:   1501.65   0.018355   92.76  0.003814  (-0.041848  0.004606  0.045187)
 94:   1509.74   0.001368    6.91  0.000283  ( 0.000627  0.015721 -0.005940)
 95:   1523.95   0.018101   91.47  0.003707  (-0.004018 -0.006203  0.060431)
 96:   1541.05   0.016782   84.81  0.003398  ( 0.003932  0.035536 -0.046045)
 97:   1646.98   0.011868   59.98  0.002249  (-0.032045  0.031439 -0.015277)
 98:   1648.08   0.001353    6.84  0.000256  ( 0.010867 -0.008389 -0.008225)
 99:   1662.92   0.013213   66.77  0.002480  ( 0.004132 -0.031527  0.038323)
100:   1694.19   0.156381  790.29  0.028805  ( 0.113371 -0.108903  0.063968)
101:   1720.41   0.100264  506.69  0.018187  ( 0.005895 -0.095337  0.095199)
102:   3024.05   0.014943   75.51  0.001542  (-0.013044  0.004346  0.036783)
103:   3037.35   0.013233   66.87  0.001360  ( 0.023513  0.023103  0.016520)
104:   3040.70   0.010411   52.61  0.001068  (-0.007508  0.031387  0.005190)
105:   3044.80   0.010421   52.66  0.001068  ( 0.003583 -0.015919 -0.028316)
106:   3074.70   0.007459   37.70  0.000757  ( 0.019850  0.018987  0.001592)
107:   3101.66   0.005211   26.33  0.000524  (-0.018351  0.007321  0.011574)
108:   3111.23   0.001972    9.96  0.000198  (-0.009621 -0.010155  0.001443)
109:   3114.70   0.009348   47.24  0.000937  ( 0.029599 -0.007673  0.001258)
110:   3130.99   0.000822    4.16  0.000082  ( 0.006657  0.002384  0.005654)
111:   3144.49   0.004541   22.95  0.000451  ( 0.004818 -0.008545  0.018825)
112:   3150.29   0.003089   15.61  0.000306  ( 0.009332  0.002970 -0.014495)
113:   3154.49   0.001890    9.55  0.000187  (-0.010106  0.009048  0.001730)
114:   3174.88   0.000434    2.20  0.000043  (-0.004692  0.001034 -0.004429)
115:   3188.52   0.000065    0.33  0.000006  ( 0.000162  0.001507 -0.002012)
116:   3196.30   0.000694    3.51  0.000068  (-0.003214  0.001399  0.007450)
117:   3200.19   0.003031   15.32  0.000296  (-0.014174  0.004156  0.008800)
118:   3204.67   0.002660   13.44  0.000259  ( 0.007512 -0.013447  0.004662)
119:   3212.76   0.002496   12.61  0.000242  (-0.005722 -0.001781  0.014371)
120:   3219.50   0.000441    2.23  0.000043  ( 0.003247 -0.005675 -0.000003)
121:   3286.30   0.001602    8.10  0.000152  ( 0.004036 -0.002343 -0.011417)
122:   3307.45   0.000050    0.25  0.000005  (-0.001025  0.001281 -0.001420)

--------------------------
THERMOCHEMISTRY AT 433.15K
--------------------------

Temperature         ... 433.15 K
Pressure            ... 1.00 atm
Total Mass          ... 271.36 AMU

Throughout the following assumptions are being made:
  (1) The electronic state is orbitally nondegenerate
  (2) There are no thermally accessible electronically excited states
  (3) Hindered rotations indicated by low frequency modes are not
      treated as such but are treated as vibrations and this may
      cause some error
  (4) All equations used are the standard statistical mechanics
      equations for an ideal gas
  (5) All vibrations are strictly harmonic

freq.      24.79  E(vib)   ...       0.83
freq.      37.14  E(vib)   ...       0.81
freq.      56.52  E(vib)   ...       0.78
freq.      59.86  E(vib)   ...       0.78
freq.      75.31  E(vib)   ...       0.76
freq.      88.01  E(vib)   ...       0.74
freq.      94.46  E(vib)   ...       0.73
freq.     106.98  E(vib)   ...       0.72
freq.     123.15  E(vib)   ...       0.70
freq.     141.10  E(vib)   ...       0.67
freq.     155.51  E(vib)   ...       0.66
freq.     183.49  E(vib)   ...       0.62
freq.     190.88  E(vib)   ...       0.62
freq.     214.47  E(vib)   ...       0.59
freq.     222.63  E(vib)   ...       0.58
freq.     229.38  E(vib)   ...       0.57
freq.     240.00  E(vib)   ...       0.56
freq.     301.72  E(vib)   ...       0.50
freq.     309.23  E(vib)   ...       0.49
freq.     321.23  E(vib)   ...       0.48
freq.     348.98  E(vib)   ...       0.46
freq.     370.31  E(vib)   ...       0.44
freq.     420.68  E(vib)   ...       0.40
freq.     422.55  E(vib)   ...       0.39
freq.     439.32  E(vib)   ...       0.38
freq.     474.84  E(vib)   ...       0.35
freq.     527.58  E(vib)   ...       0.32
freq.     578.69  E(vib)   ...       0.28
freq.     582.21  E(vib)   ...       0.28
freq.     594.02  E(vib)   ...       0.27
freq.     628.68  E(vib)   ...       0.25
freq.     636.83  E(vib)   ...       0.25
freq.     649.10  E(vib)   ...       0.24
freq.     668.96  E(vib)   ...       0.23
freq.     702.23  E(vib)   ...       0.22
freq.     718.49  E(vib)   ...       0.21
freq.     728.78  E(vib)   ...       0.20
freq.     755.84  E(vib)   ...       0.19
freq.     779.14  E(vib)   ...       0.18
freq.     786.62  E(vib)   ...       0.18
freq.     800.63  E(vib)   ...       0.17
freq.     837.90  E(vib)   ...       0.16
freq.     859.80  E(vib)   ...       0.15
freq.     909.44  E(vib)   ...       0.13
freq.     945.13  E(vib)   ...       0.12
freq.     955.65  E(vib)   ...       0.12
freq.     992.16  E(vib)   ...       0.11
freq.    1011.63  E(vib)   ...       0.10
freq.    1015.39  E(vib)   ...       0.10
freq.    1025.46  E(vib)   ...       0.10
freq.    1050.01  E(vib)   ...       0.09
freq.    1059.67  E(vib)   ...       0.09
freq.    1062.09  E(vib)   ...       0.09
freq.    1072.68  E(vib)   ...       0.09
freq.    1099.46  E(vib)   ...       0.08
freq.    1101.84  E(vib)   ...       0.08
freq.    1109.28  E(vib)   ...       0.08
freq.    1125.22  E(vib)   ...       0.08
freq.    1143.35  E(vib)   ...       0.07
freq.    1145.29  E(vib)   ...       0.07
freq.    1146.05  E(vib)   ...       0.07
freq.    1147.30  E(vib)   ...       0.07
freq.    1160.45  E(vib)   ...       0.07
freq.    1173.01  E(vib)   ...       0.07
freq.    1186.29  E(vib)   ...       0.07
freq.    1259.34  E(vib)   ...       0.06
freq.    1273.07  E(vib)   ...       0.05
freq.    1291.22  E(vib)   ...       0.05
freq.    1316.55  E(vib)   ...       0.05
freq.    1329.00  E(vib)   ...       0.05
freq.    1348.12  E(vib)   ...       0.04
freq.    1351.73  E(vib)   ...       0.04
freq.    1361.91  E(vib)   ...       0.04
freq.    1384.66  E(vib)   ...       0.04
freq.    1389.11  E(vib)   ...       0.04
freq.    1410.83  E(vib)   ...       0.04
freq.    1418.51  E(vib)   ...       0.04
freq.    1434.29  E(vib)   ...       0.04
freq.    1447.08  E(vib)   ...       0.03
freq.    1449.57  E(vib)   ...       0.03
freq.    1460.46  E(vib)   ...       0.03
freq.    1465.53  E(vib)   ...       0.03
freq.    1474.85  E(vib)   ...       0.03
freq.    1477.52  E(vib)   ...       0.03
freq.    1479.56  E(vib)   ...       0.03
freq.    1486.99  E(vib)   ...       0.03
freq.    1500.24  E(vib)   ...       0.03
freq.    1501.65  E(vib)   ...       0.03
freq.    1509.74  E(vib)   ...       0.03
freq.    1523.95  E(vib)   ...       0.03
freq.    1541.05  E(vib)   ...       0.03
freq.    1646.98  E(vib)   ...       0.02
freq.    1648.08  E(vib)   ...       0.02
freq.    1662.92  E(vib)   ...       0.02
freq.    1694.19  E(vib)   ...       0.02
freq.    1720.41  E(vib)   ...       0.02
freq.    3024.05  E(vib)   ...       0.00
freq.    3037.35  E(vib)   ...       0.00
freq.    3040.70  E(vib)   ...       0.00
freq.    3044.80  E(vib)   ...       0.00
freq.    3074.70  E(vib)   ...       0.00
freq.    3101.66  E(vib)   ...       0.00
freq.    3111.23  E(vib)   ...       0.00
freq.    3114.70  E(vib)   ...       0.00
freq.    3130.99  E(vib)   ...       0.00
freq.    3144.49  E(vib)   ...       0.00
freq.    3150.29  E(vib)   ...       0.00
freq.    3154.49  E(vib)   ...       0.00
freq.    3174.88  E(vib)   ...       0.00
freq.    3188.52  E(vib)   ...       0.00
freq.    3196.30  E(vib)   ...       0.00
freq.    3200.19  E(vib)   ...       0.00
freq.    3204.67  E(vib)   ...       0.00
freq.    3212.76  E(vib)   ...       0.00
freq.    3219.50  E(vib)   ...       0.00
freq.    3286.30  E(vib)   ...       0.00
freq.    3307.45  E(vib)   ...       0.00

------------
INNER ENERGY
------------

The inner energy is: U= E(el) + E(ZPE) + E(vib) + E(rot) + E(trans)
    E(el)   - is the total energy from the electronic structure calculation
              = E(kin-el) + E(nuc-el) + E(el-el) + E(nuc-nuc)
    E(ZPE)  - the the zero temperature vibrational energy from the frequency calculation
    E(vib)  - the the finite temperature correction to E(ZPE) due to population
              of excited vibrational states
    E(rot)  - is the rotational thermal energy
    E(trans)- is the translational thermal energy

Summary of contributions to the inner energy U:
Electronic energy                ...   -861.15437258 Eh
Zero point energy                ...      0.34742974 Eh     218.01 kcal/mol
Thermal vibrational correction   ...      0.03581608 Eh      22.47 kcal/mol
Thermal rotational correction    ...      0.00205755 Eh       1.29 kcal/mol
Thermal translational correction ...      0.00205755 Eh       1.29 kcal/mol
-----------------------------------------------------------------------
Total thermal energy                   -860.76701165 Eh

Summary of corrections to the electronic energy:
(perhaps to be used in another calculation)
Total thermal correction                  0.03993118 Eh      25.06 kcal/mol

Rotational constants in cm-1:     0.014418     0.011069     0.008294

                             ****ORCA TERMINATED NORMALLY****
TOTAL RUN TIME: 0 days 0 hours 28 minutes 51 seconds 444 msec
