                         Program Version 5.0.4 -  RELEASE  -
|  1> %pal nprocs 24 end
|  2> ! PBE0 def2-TZVP D4 CPCM(Toluene) Freq OPT
|  3> %maxcore 3000
|  4> %freq temp 433.15 end
|  5>
|  6> * xyz 0 1
|  7> C       -1.187278000     -1.962646000     -0.617841000
|  8> N       -0.476354000     -0.731036000     -0.836552000
|  9> C        0.659762000     -0.673267000     -1.568614000
| 10> C        1.276193000      0.699398000     -1.402656000
| 11> C        0.174049000      1.520216000     -0.748052000
| 12> C        0.572540000      2.646665000      0.163644000
| 13> C        1.886360000      2.871857000      0.556976000
| 14> C        2.206574000      3.920450000      1.410561000
| 15> C        1.214987000      4.763059000      1.885062000
| 16> C       -0.100800000      4.553952000      1.491789000
| 17> C       -0.414828000      3.511201000      0.637116000
| 18> C       -0.778961000      0.490420000     -0.076453000
| 19> N       -2.175263000      0.865406000     -0.144552000
| 20> C       -2.862958000      0.867511000     -1.405629000
| 21> C       -2.802203000      0.431987000      1.033089000
| 22> C       -1.862301000      0.104118000      1.921884000
| 23> N       -0.604764000      0.313169000      1.349836000
| 24> C        0.580099000     -0.324449000      1.850430000
| 25> C        1.823447000      1.266361000     -2.696411000
| 26> O        1.128492000     -1.587906000     -2.222176000
| 27> H       -1.037606000     -2.329245000      0.401343000
| 28> H       -0.805975000     -2.699636000     -1.323939000
| 29> H       -2.258168000     -1.829038000     -0.772849000
| 30> H        2.105878000      0.541591000     -0.703570000
| 31> H       -0.416049000      1.955104000     -1.561774000
| 32> H        2.683749000      2.233345000      0.195686000
| 33> H        3.239435000      4.077268000      1.700957000
| 34> H        1.464137000      5.581047000      2.551400000
| 35> H       -0.886281000      5.209168000      1.851706000
| 36> H       -1.443585000      3.347261000      0.337316000
| 37> H       -2.962191000     -0.126007000     -1.862513000
| 38> H       -2.349189000      1.515426000     -2.118546000
| 39> H       -3.863174000      1.275736000     -1.254455000
| 40> H       -3.872064000      0.491569000      1.147642000
| 41> H       -1.960533000     -0.181073000      2.956800000
| 42> H        0.530290000     -0.345381000      2.939421000
| 43> H        0.712083000     -1.354785000      1.491982000
| 44> H        1.464534000      0.251964000      1.572550000
| 45> H        1.018256000      1.427626000     -3.418089000
| 46> H        2.317627000      2.224023000     -2.520269000
| 47> H        2.545161000      0.580034000     -3.141128000
| 48> *
| 49>
| 50>                          ****END OF INPUT****
 Total Charge           Charge          ....    0
 Multiplicity           Mult            ....    1
 Number of Electrons    NEL             ....  146
Dispersion correction           -0.052782400
FINAL SINGLE POINT ENERGY      -861.180078261961
Dispersion correction            ... Starting D4
                    ***********************HURRAY********************

CARTESIAN COORDINATES (ANGSTROEM)
---------------------------------
  C     -1.187103   -1.962857   -0.617970
  N     -0.476475   -0.731023   -0.836671
  C      0.660017   -0.673341   -1.568246
  C      1.276131    0.699556   -1.402814
  C      0.174093    1.520341   -0.748019
  C      0.572670    2.646737    0.163809
  C      1.886461    2.871642    0.557407
  C      2.206794    3.920202    1.411027
  C      1.215355    4.763146    1.885238
  C     -0.100426    4.554372    1.491689
  C     -0.414556    3.511620    0.637064
  C     -0.778966    0.490583   -0.076425
  N     -2.175379    0.865533   -0.144564
  C     -2.862832    0.867245   -1.405854
  C     -2.802295    0.432135    1.033135
  C     -1.862434    0.104316    1.921987
  N     -0.604788    0.313272    1.349887
  C      0.579906   -0.324742    1.850585
  C      1.822577    1.266614   -2.696928
  O      1.129168   -1.588099   -2.221367
  H     -1.038805   -2.328497    0.401792
  H     -0.804354   -2.700248   -1.322919
  H     -2.257881   -1.829971   -0.774745
  H      2.106260    0.542005   -0.704208
  H     -0.416140    1.955298   -1.561618
  H      2.683719    2.232871    0.196276
  H      3.239637    4.076721    1.701673
  H      1.464597    5.581144    2.551536
  H     -0.885793    5.209868    1.851351
  H     -1.443327    3.347938    0.337146
  H     -2.961124   -0.126396   -1.862726
  H     -2.349384    1.515603   -2.118647
  H     -3.863442    1.274674   -1.254899
  H     -3.872160    0.491718    1.147725
  H     -1.960702   -0.180854    2.956907
  H      0.530055   -0.345892    2.939629
  H      0.711803   -1.355011    1.491940
  H      1.464523    0.251721    1.573154
  H      1.016880    1.427376   -3.418183
  H      2.316389    2.224544   -2.521123
  H      2.544459    0.580597   -3.141910

 Multiplicity           Mult            ....    1
 Number of Electrons    NEL             ....  146
 Basis Dimension        Dim             ....  746

ORBITAL ENERGIES
----------------

  NO   OCC          E(Eh)            E(eV)
   0   2.0000     -19.170755      -521.6628
   1   2.0000     -14.412219      -392.1764
   2   2.0000     -14.400473      -391.8568
   3   2.0000     -14.398173      -391.7942
   4   2.0000     -10.333069      -281.1771
   5   2.0000     -10.315282      -280.6931
   6   2.0000     -10.247934      -278.8605
   7   2.0000     -10.245374      -278.7908
   8   2.0000     -10.244773      -278.7745
   9   2.0000     -10.239469      -278.6301
  10   2.0000     -10.237497      -278.5764
  11   2.0000     -10.235611      -278.5251
  12   2.0000     -10.235607      -278.5250
  13   2.0000     -10.233993      -278.4811
  14   2.0000     -10.225580      -278.2522
  15   2.0000     -10.224920      -278.2342
  16   2.0000     -10.224474      -278.2221
  17   2.0000     -10.223510      -278.1958
  18   2.0000     -10.221399      -278.1384
  19   2.0000     -10.211086      -277.8578
  20   2.0000      -1.074732       -29.2449
  21   2.0000      -1.041582       -28.3429
  22   2.0000      -0.960433       -26.1347
  23   2.0000      -0.930560       -25.3218
  24   2.0000      -0.892039       -24.2736
  25   2.0000      -0.850289       -23.1375
  26   2.0000      -0.791826       -21.5467
  27   2.0000      -0.782108       -21.2822
  28   2.0000      -0.770923       -20.9779
  29   2.0000      -0.763301       -20.7705
  30   2.0000      -0.731821       -19.9139
  31   2.0000      -0.698042       -18.9947
  32   2.0000      -0.695335       -18.9210
  33   2.0000      -0.647137       -17.6095
  34   2.0000      -0.629115       -17.1191
  35   2.0000      -0.623454       -16.9650
  36   2.0000      -0.613066       -16.6824
  37   2.0000      -0.593030       -16.1372
  38   2.0000      -0.562552       -15.3078
  39   2.0000      -0.549793       -14.9606
  40   2.0000      -0.530521       -14.4362
  41   2.0000      -0.513947       -13.9852
  42   2.0000      -0.499367       -13.5885
  43   2.0000      -0.490575       -13.3492
  44   2.0000      -0.477212       -12.9856
  45   2.0000      -0.475945       -12.9511
  46   2.0000      -0.463464       -12.6115
  47   2.0000      -0.455824       -12.4036
  48   2.0000      -0.454055       -12.3555
  49   2.0000      -0.442996       -12.0545
  50   2.0000      -0.438126       -11.9220
  51   2.0000      -0.432686       -11.7740
  52   2.0000      -0.429132       -11.6773
  53   2.0000      -0.428200       -11.6519
  54   2.0000      -0.416788       -11.3414
  55   2.0000      -0.411690       -11.2026
  56   2.0000      -0.409645       -11.1470
  57   2.0000      -0.402960       -10.9651
  58   2.0000      -0.395980       -10.7752
  59   2.0000      -0.390158       -10.6167
  60   2.0000      -0.381902       -10.3921
  61   2.0000      -0.378499       -10.2995
  62   2.0000      -0.372816       -10.1448
  63   2.0000      -0.360801        -9.8179
  64   2.0000      -0.351259        -9.5582
  65   2.0000      -0.340506        -9.2656
  66   2.0000      -0.336250        -9.1498
  67   2.0000      -0.288401        -7.8478
  68   2.0000      -0.272204        -7.4071
  69   2.0000      -0.268365        -7.3026
  70   2.0000      -0.263391        -7.1672
  71   2.0000      -0.258905        -7.0452
  72   2.0000      -0.178946        -4.8694
  73   0.0000      -0.010268        -0.2794
  74   0.0000      -0.006833        -0.1859
  75   0.0000       0.019137         0.5208
  76   0.0000       0.040511         1.1024
  77   0.0000       0.045280         1.2321

MULLIKEN ATOMIC CHARGES
-----------------------
   0 C :   -0.313591
   1 N :   -0.076024
   2 C :    0.111024
   3 C :    0.135494
   4 C :   -0.107221
   5 C :    0.200690
   6 C :   -0.278944
   7 C :   -0.150196
   8 C :   -0.141073
   9 C :   -0.138146
  10 C :   -0.281878
  11 C :    0.189874
  12 N :   -0.073941
  13 C :   -0.314199
  14 C :   -0.194612
  15 C :   -0.193189
  16 N :   -0.034214
  17 C :   -0.334657
  18 C :   -0.430230
  19 O :   -0.417427
  20 H :    0.134076
  21 H :    0.167130
  22 H :    0.134080
  23 H :    0.099242
  24 H :    0.089706
  25 H :    0.139608
  26 H :    0.132270
  27 H :    0.132365
  28 H :    0.130197
  29 H :    0.134829
  30 H :    0.122039
  31 H :    0.137839
  32 H :    0.150414
  33 H :    0.154003
  34 H :    0.153926
  35 H :    0.151867
  36 H :    0.121565
  37 H :    0.142038
  38 H :    0.130086
  39 H :    0.140209
  40 H :    0.144972
Sum of atomic charges:   -0.0000000

LOEWDIN ATOMIC CHARGES
----------------------
   0 C :   -0.281265
   1 N :    0.233344
   2 C :   -0.411229
   3 C :   -0.217295
   4 C :   -0.129486
   5 C :   -0.120370
   6 C :   -0.122359
   7 C :   -0.148841
   8 C :   -0.151737
   9 C :   -0.146507
  10 C :   -0.105279
  11 C :   -0.286398
  12 N :    0.174700
  13 C :   -0.311257
  14 C :   -0.257898
  15 C :   -0.251852
  16 N :    0.184737
  17 C :   -0.301106
  18 C :   -0.273619
  19 O :    0.039207
  20 H :    0.120780
  21 H :    0.133636
  22 H :    0.120382
  23 H :    0.173118
  24 H :    0.180898
  25 H :    0.152819
  26 H :    0.149257
  27 H :    0.148320
  28 H :    0.149364
  29 H :    0.155971
  30 H :    0.111529
  31 H :    0.121349
  32 H :    0.128329
  33 H :    0.141076
  34 H :    0.142074
  35 H :    0.129501
  36 H :    0.113496
  37 H :    0.123490
  38 H :    0.129069
  39 H :    0.128524
  40 H :    0.131528

  Mayer bond orders larger than 0.100000
B(  0-C ,  1-N ) :   0.9250 B(  0-C , 20-H ) :   0.9594 B(  0-C , 21-H ) :   0.9481
B(  0-C , 22-H ) :   0.9630 B(  1-N ,  2-C ) :   1.2176 B(  1-N , 11-C ) :   0.9928
B(  2-C ,  3-C ) :   0.9294 B(  2-C , 19-O ) :   2.0726 B(  3-C ,  4-C ) :   1.0235
B(  3-C , 18-C ) :   0.9221 B(  3-C , 23-H ) :   0.8915 B(  4-C ,  5-C ) :   0.9404
B(  4-C , 11-C ) :   0.9135 B(  4-C , 24-H ) :   0.9053 B(  5-C ,  6-C ) :   1.3308
B(  5-C , 10-C ) :   1.3728 B(  6-C ,  7-C ) :   1.4350 B(  6-C , 25-H ) :   0.9672
B(  7-C ,  8-C ) :   1.4194 B(  7-C , 26-H ) :   0.9721 B(  8-C ,  9-C ) :   1.3799
B(  8-C , 27-H ) :   0.9721 B(  9-C , 10-C ) :   1.4447 B(  9-C , 28-H ) :   0.9775
B( 10-C , 29-H ) :   0.9668 B( 11-C , 12-N ) :   1.0526 B( 11-C , 16-N ) :   1.0710
B( 12-N , 13-C ) :   0.9501 B( 12-N , 14-C ) :   1.0183 B( 13-C , 30-H ) :   0.9558
B( 13-C , 31-H ) :   0.9623 B( 13-C , 32-H ) :   0.9639 B( 14-C , 15-C ) :   1.7937
B( 14-C , 33-H ) :   0.9640 B( 15-C , 16-N ) :   1.0471 B( 15-C , 34-H ) :   0.9603
B( 16-N , 17-C ) :   0.9474 B( 17-C , 35-H ) :   0.9605 B( 17-C , 36-H ) :   0.9539
B( 17-C , 37-H ) :   0.9680 B( 18-C , 38-H ) :   0.9748 B( 18-C , 39-H ) :   0.9683
B( 18-C , 40-H ) :   0.9667

Dispersion correction           -0.052779072
FINAL SINGLE POINT ENERGY      -861.180078207203

DIPOLE MOMENT
-------------
                                X             Y             Z
Electronic contribution:      0.71804       1.97679       2.15652
Nuclear contribution   :     -1.59918      -1.29856      -1.27417
                        -----------------------------------------
Total Dipole Moment    :     -0.88113       0.67823       0.88235
                        -----------------------------------------
Magnitude (a.u.)       :      1.41948
Magnitude (Debye)      :      3.60804

Dispersion correction in the Hessian             ... Starting D4

VIBRATIONAL FREQUENCIES
-----------------------

Scaling factor for frequencies =  1.000000000  (already applied!)

   0:         0.00 cm**-1
   1:         0.00 cm**-1
   2:         0.00 cm**-1
   3:         0.00 cm**-1
   4:         0.00 cm**-1
   5:         0.00 cm**-1
   6:        18.14 cm**-1
   7:        49.71 cm**-1
   8:        67.00 cm**-1
   9:        76.99 cm**-1
  10:        83.13 cm**-1
  11:       109.68 cm**-1
  12:       115.10 cm**-1
  13:       144.74 cm**-1
  14:       162.50 cm**-1
  15:       169.40 cm**-1
  16:       184.99 cm**-1
  17:       199.42 cm**-1
  18:       209.74 cm**-1
  19:       233.41 cm**-1
  20:       248.13 cm**-1
  21:       262.32 cm**-1
  22:       279.63 cm**-1
  23:       295.51 cm**-1
  24:       319.09 cm**-1
  25:       344.15 cm**-1
  26:       374.11 cm**-1
  27:       405.59 cm**-1
  28:       413.87 cm**-1
  29:       450.88 cm**-1
  30:       486.28 cm**-1
  31:       526.42 cm**-1
  32:       562.69 cm**-1
  33:       579.20 cm**-1
  34:       600.95 cm**-1
  35:       629.01 cm**-1
  36:       631.68 cm**-1
  37:       650.05 cm**-1
  38:       665.85 cm**-1
  39:       706.20 cm**-1
  40:       717.11 cm**-1
  41:       766.94 cm**-1
  42:       773.76 cm**-1
  43:       799.94 cm**-1
  44:       804.68 cm**-1
  45:       839.44 cm**-1
  46:       862.69 cm**-1
  47:       898.69 cm**-1
  48:       933.56 cm**-1
  49:       968.78 cm**-1
  50:       983.93 cm**-1
  51:       992.08 cm**-1
  52:       999.24 cm**-1
  53:      1003.01 cm**-1
  54:      1022.90 cm**-1
  55:      1025.58 cm**-1
  56:      1043.22 cm**-1
  57:      1055.12 cm**-1
  58:      1064.31 cm**-1
  59:      1097.70 cm**-1
  60:      1103.68 cm**-1
  61:      1108.04 cm**-1
  62:      1143.17 cm**-1
  63:      1143.90 cm**-1
  64:      1150.64 cm**-1
  65:      1155.18 cm**-1
  66:      1163.11 cm**-1
  67:      1173.63 cm**-1
  68:      1195.92 cm**-1
  69:      1204.77 cm**-1
  70:      1236.30 cm**-1
  71:      1245.34 cm**-1
  72:      1250.73 cm**-1
  73:      1267.60 cm**-1
  74:      1271.64 cm**-1
  75:      1293.64 cm**-1
  76:      1299.32 cm**-1
  77:      1335.37 cm**-1
  78:      1345.21 cm**-1
  79:      1370.69 cm**-1
  80:      1390.30 cm**-1
  81:      1393.11 cm**-1
  82:      1396.53 cm**-1
  83:      1416.86 cm**-1
  84:      1428.81 cm**-1
  85:      1448.02 cm**-1
  86:      1452.96 cm**-1
  87:      1459.06 cm**-1
  88:      1470.67 cm**-1
  89:      1475.12 cm**-1
  90:      1477.65 cm**-1
  91:      1479.01 cm**-1
  92:      1481.38 cm**-1
  93:      1488.16 cm**-1
  94:      1498.87 cm**-1
  95:      1500.97 cm**-1
  96:      1516.56 cm**-1
  97:      1540.06 cm**-1
  98:      1647.93 cm**-1
  99:      1671.72 cm**-1
 100:      1679.45 cm**-1
 101:      1769.99 cm**-1
 102:      2999.11 cm**-1
 103:      3006.15 cm**-1
 104:      3045.87 cm**-1
 105:      3051.13 cm**-1
 106:      3051.95 cm**-1
 107:      3061.56 cm**-1
 108:      3092.23 cm**-1
 109:      3094.46 cm**-1
 110:      3121.37 cm**-1
 111:      3123.97 cm**-1
 112:      3134.95 cm**-1
 113:      3141.10 cm**-1
 114:      3142.14 cm**-1
 115:      3160.13 cm**-1
 116:      3184.20 cm**-1
 117:      3191.51 cm**-1
 118:      3201.25 cm**-1
 119:      3207.04 cm**-1
 120:      3213.45 cm**-1
 121:      3269.30 cm**-1
 122:      3291.68 cm**-1

IR SPECTRUM
-----------

 Mode   freq       eps      Int      T**2         TX        TY        TZ
       cm**-1   L/(mol*cm) km/mol    a.u.
----------------------------------------------------------------------------
  6:     18.14   0.000014    0.07  0.000236  (-0.008244 -0.006406 -0.011268)
  7:     49.71   0.000046    0.23  0.000288  ( 0.012672 -0.002588  0.011005)
  8:     67.00   0.000162    0.82  0.000753  ( 0.020873 -0.010602  0.014332)
  9:     76.99   0.000208    1.05  0.000841  ( 0.021777 -0.007375  0.017681)
 10:     83.13   0.001118    5.65  0.004199  ( 0.035690 -0.021435  0.049655)
 11:    109.68   0.000044    0.22  0.000124  (-0.002053 -0.009134 -0.006040)
 12:    115.10   0.000068    0.35  0.000186  (-0.012761  0.003954 -0.002681)
 13:    144.74   0.000428    2.16  0.000923  (-0.028927 -0.003346 -0.008665)
 14:    162.50   0.001202    6.07  0.002307  (-0.015806  0.044679  0.007838)
 15:    169.40   0.000288    1.46  0.000531  (-0.001544 -0.007295 -0.021794)
 16:    184.99   0.000038    0.19  0.000065  (-0.005971 -0.001088  0.005268)
 17:    199.42   0.000143    0.72  0.000224  (-0.009833 -0.011131 -0.001795)
 18:    209.74   0.000154    0.78  0.000229  (-0.012216 -0.008942 -0.000137)
 19:    233.41   0.000100    0.51  0.000134  ( 0.003254  0.005981 -0.009362)
 20:    248.13   0.000998    5.04  0.001255  (-0.024624 -0.000729 -0.025463)
 21:    262.32   0.000928    4.69  0.001104  ( 0.021006 -0.003605  0.025482)
 22:    279.63   0.001013    5.12  0.001130  ( 0.008861 -0.029497 -0.013471)
 23:    295.51   0.001931    9.76  0.002039  ( 0.006467 -0.039775 -0.020365)
 24:    319.09   0.000791    4.00  0.000773  ( 0.015539  0.012298 -0.019504)
 25:    344.15   0.001236    6.25  0.001121  (-0.003494 -0.033118  0.003481)
 26:    374.11   0.001437    7.26  0.001199  (-0.009369 -0.026322  0.020444)
 27:    405.59   0.004490   22.69  0.003455  (-0.045341 -0.036599  0.007725)
 28:    413.87   0.000434    2.19  0.000327  (-0.011020 -0.014337  0.000355)
 29:    450.88   0.001120    5.66  0.000775  (-0.012028 -0.022060  0.011993)
 30:    486.28   0.002732   13.81  0.001753  ( 0.009170  0.001688 -0.040819)
 31:    526.42   0.000546    2.76  0.000324  (-0.009136 -0.015499  0.000058)
 32:    562.69   0.003060   15.47  0.001697  ( 0.025316 -0.031111 -0.009404)
 33:    579.20   0.002632   13.30  0.001418  (-0.024781 -0.000439 -0.028354)
 34:    600.95   0.001938    9.80  0.001007  ( 0.004922 -0.028458 -0.013134)
 35:    629.01   0.003492   17.65  0.001732  (-0.009911  0.027845  0.029306)
 36:    631.68   0.000146    0.74  0.000072  (-0.003397 -0.006141 -0.004778)
 37:    650.05   0.014448   73.01  0.006936  (-0.004319 -0.081624 -0.015958)
 38:    665.85   0.003847   19.44  0.001803  (-0.011166 -0.037262 -0.017020)
 39:    706.20   0.002700   13.65  0.001193  (-0.008500  0.030267 -0.014315)
 40:    717.11   0.013292   67.17  0.005784  (-0.007341 -0.047261  0.059133)
 41:    766.94   0.002674   13.52  0.001088  (-0.008669 -0.004985 -0.031436)
 42:    773.76   0.003170   16.02  0.001279  (-0.006974  0.023559 -0.025978)
 43:    799.94   0.003553   17.95  0.001386  (-0.032113  0.009192 -0.016440)
 44:    804.68   0.002302   11.64  0.000893  (-0.019028 -0.008767  0.021306)
 45:    839.44   0.005650   28.55  0.002100  ( 0.011692 -0.031361 -0.031308)
 46:    862.69   0.000007    0.04  0.000003  ( 0.000570 -0.000653  0.001373)
 47:    898.69   0.000483    2.44  0.000168  ( 0.009256 -0.009065 -0.000132)
 48:    933.56   0.000538    2.72  0.000180  (-0.004037 -0.011502 -0.005584)
 49:    968.78   0.008418   42.54  0.002712  ( 0.021012 -0.032583 -0.034764)
 50:    983.93   0.000681    3.44  0.000216  (-0.008573  0.010528  0.005620)
 51:    992.08   0.005203   26.29  0.001637  (-0.022626  0.017565 -0.028569)
 52:    999.24   0.007450   37.65  0.002327  ( 0.023601 -0.037529 -0.019005)
 53:   1003.01   0.013428   67.86  0.004178  ( 0.022872 -0.043594 -0.041885)
 54:   1022.90   0.000175    0.89  0.000053  (-0.003829 -0.005426 -0.003058)
 55:   1025.58   0.019950  100.82  0.006070  ( 0.062581 -0.005116 -0.046128)
 56:   1043.22   0.003708   18.74  0.001109  ( 0.019067 -0.001753  0.027249)
 57:   1055.12   0.001793    9.06  0.000530  (-0.020604 -0.008328 -0.006023)
 58:   1064.31   0.002766   13.98  0.000811  (-0.007516  0.021341  0.017294)
 59:   1097.70   0.005188   26.22  0.001475  ( 0.036869 -0.002090 -0.010550)
 60:   1103.68   0.005229   26.43  0.001479  (-0.022559 -0.006347  0.030486)
 61:   1108.04   0.001589    8.03  0.000448  ( 0.017418  0.011134 -0.004503)
 62:   1143.17   0.000531    2.69  0.000145  ( 0.000678 -0.011057 -0.004726)
 63:   1143.90   0.002329   11.77  0.000635  (-0.022458  0.005221 -0.010180)
 64:   1150.64   0.001809    9.14  0.000491  (-0.007982 -0.005952  0.019787)
 65:   1155.18   0.001028    5.19  0.000278  ( 0.016010  0.003287 -0.003247)
 66:   1163.11   0.006000   30.32  0.001610  ( 0.020648 -0.023926 -0.024719)
 67:   1173.63   0.000019    0.10  0.000005  ( 0.000158  0.002201 -0.000390)
 68:   1195.92   0.001693    8.56  0.000442  ( 0.009494 -0.002686 -0.018561)
 69:   1204.77   0.001245    6.29  0.000322  (-0.011585 -0.000573  0.013706)
 70:   1236.30   0.002879   14.55  0.000727  (-0.019391 -0.006578 -0.017533)
 71:   1245.34   0.011849   59.88  0.002969  ( 0.028627 -0.046192  0.003990)
 72:   1250.73   0.011520   58.22  0.002874  (-0.026795 -0.004075 -0.046257)
 73:   1267.60   0.001420    7.18  0.000350  (-0.005160 -0.017169  0.005310)
 74:   1271.64   0.000992    5.01  0.000243  ( 0.011981  0.009105 -0.004117)
 75:   1293.64   0.006351   32.10  0.001532  ( 0.030191  0.016681 -0.018501)
 76:   1299.32   0.002214   11.19  0.000532  ( 0.012244  0.011070 -0.016105)
 77:   1335.37   0.000785    3.97  0.000184  (-0.000215  0.006847 -0.011688)
 78:   1345.21   0.000035    0.18  0.000008  (-0.001535 -0.000291  0.002379)
 79:   1370.69   0.000124    0.63  0.000028  (-0.004456 -0.000902 -0.002754)
 80:   1390.30   0.000913    4.62  0.000205  (-0.006163 -0.007901  0.010229)
 81:   1393.11   0.016204   81.89  0.003630  (-0.026130  0.009075  0.053523)
 82:   1396.53   0.000216    1.09  0.000048  (-0.004991 -0.004826 -0.000285)
 83:   1416.86   0.025893  130.85  0.005703  (-0.054267  0.018634 -0.049099)
 84:   1428.81   0.015485   78.26  0.003382  (-0.048891  0.010659  0.029634)
 85:   1448.02   0.045026  227.54  0.009704  (-0.071691 -0.061926  0.027003)
 86:   1452.96   0.004099   20.72  0.000880  (-0.024297 -0.002101  0.016903)
 87:   1459.06   0.010083   50.96  0.002157  (-0.036988  0.011396 -0.025663)
 88:   1470.67   0.002968   15.00  0.000630  ( 0.017327 -0.007756  0.016416)
 89:   1475.12   0.000895    4.52  0.000189  ( 0.006606 -0.010088 -0.006621)
 90:   1477.65   0.000418    2.11  0.000088  ( 0.002388  0.004387 -0.007952)
 91:   1479.01   0.001813    9.16  0.000383  ( 0.018646 -0.005056  0.003052)
 92:   1481.38   0.003709   18.74  0.000781  ( 0.021220  0.018109  0.001776)
 93:   1488.16   0.001809    9.14  0.000379  ( 0.019348 -0.000458  0.002183)
 94:   1498.87   0.012142   61.36  0.002528  (-0.036843 -0.006562  0.033576)
 95:   1500.97   0.009767   49.36  0.002031  (-0.035207  0.000912  0.028111)
 96:   1516.56   0.011226   56.73  0.002310  ( 0.037610  0.024358 -0.017383)
 97:   1540.06   0.004967   25.10  0.001006  ( 0.005299  0.023757  0.020348)
 98:   1647.93   0.000217    1.09  0.000041  (-0.005149  0.002570 -0.002813)
 99:   1671.72   0.002596   13.12  0.000485  ( 0.010604  0.018404  0.005789)
100:   1679.45   0.019256   97.31  0.003578  (-0.046524 -0.007738  0.036791)
101:   1769.99   0.126462  639.09  0.022296  (-0.078995  0.086990  0.092134)
102:   2999.11   0.020795  105.09  0.002164  ( 0.030383 -0.033207  0.011743)
103:   3006.15   0.021341  107.85  0.002215  (-0.019153 -0.021466 -0.037253)
104:   3045.87   0.000392    1.98  0.000040  ( 0.003147 -0.004568 -0.003063)
105:   3051.13   0.010738   54.26  0.001098  (-0.013525 -0.021349  0.021436)
106:   3051.95   0.002805   14.17  0.000287  (-0.010448 -0.012972  0.003055)
107:   3061.56   0.003531   17.84  0.000360  ( 0.006991 -0.008337  0.015541)
108:   3092.23   0.006458   32.63  0.000652  (-0.003266  0.024054 -0.007901)
109:   3094.46   0.005974   30.19  0.000602  ( 0.015848  0.015355  0.010746)
110:   3121.37   0.003736   18.88  0.000374  (-0.015395 -0.000791 -0.011658)
111:   3123.97   0.005271   26.64  0.000527  (-0.019187 -0.007453 -0.010141)
112:   3134.95   0.003673   18.56  0.000366  ( 0.017162  0.000128 -0.008432)
113:   3141.10   0.002750   13.90  0.000273  ( 0.007476  0.004358 -0.014084)
114:   3142.14   0.003633   18.36  0.000361  ( 0.010291 -0.014287 -0.007124)
115:   3160.13   0.000896    4.53  0.000089  (-0.005528  0.006275  0.004309)
116:   3184.20   0.000235    1.19  0.000023  ( 0.000098  0.003887  0.002809)
117:   3191.51   0.000715    3.61  0.000070  (-0.008319 -0.000697 -0.000477)
118:   3201.25   0.002698   13.64  0.000263  ( 0.002791  0.011925  0.010633)
119:   3207.04   0.004475   22.62  0.000435  ( 0.017825 -0.010553 -0.002526)
120:   3213.45   0.001883    9.52  0.000183  ( 0.005904  0.010153  0.006705)
121:   3269.30   0.001018    5.14  0.000097  ( 0.007312 -0.002163  0.006246)
122:   3291.68   0.000092    0.46  0.000009  (-0.001421 -0.000266  0.002575)

--------------------------
THERMOCHEMISTRY AT 433.15K
--------------------------

Temperature         ... 433.15 K
Pressure            ... 1.00 atm
Total Mass          ... 271.36 AMU

Throughout the following assumptions are being made:
  (1) The electronic state is orbitally nondegenerate
  (2) There are no thermally accessible electronically excited states
  (3) Hindered rotations indicated by low frequency modes are not
      treated as such but are treated as vibrations and this may
      cause some error
  (4) All equations used are the standard statistical mechanics
      equations for an ideal gas
  (5) All vibrations are strictly harmonic

freq.      18.14  E(vib)   ...       0.84
freq.      49.71  E(vib)   ...       0.79
freq.      67.00  E(vib)   ...       0.77
freq.      76.99  E(vib)   ...       0.76
freq.      83.13  E(vib)   ...       0.75
freq.     109.68  E(vib)   ...       0.71
freq.     115.10  E(vib)   ...       0.71
freq.     144.74  E(vib)   ...       0.67
freq.     162.50  E(vib)   ...       0.65
freq.     169.40  E(vib)   ...       0.64
freq.     184.99  E(vib)   ...       0.62
freq.     199.42  E(vib)   ...       0.61
freq.     209.74  E(vib)   ...       0.60
freq.     233.41  E(vib)   ...       0.57
freq.     248.13  E(vib)   ...       0.55
freq.     262.32  E(vib)   ...       0.54
freq.     279.63  E(vib)   ...       0.52
freq.     295.51  E(vib)   ...       0.51
freq.     319.09  E(vib)   ...       0.48
freq.     344.15  E(vib)   ...       0.46
freq.     374.11  E(vib)   ...       0.43
freq.     405.59  E(vib)   ...       0.41
freq.     413.87  E(vib)   ...       0.40
freq.     450.88  E(vib)   ...       0.37
freq.     486.28  E(vib)   ...       0.35
freq.     526.42  E(vib)   ...       0.32
freq.     562.69  E(vib)   ...       0.29
freq.     579.20  E(vib)   ...       0.28
freq.     600.95  E(vib)   ...       0.27
freq.     629.01  E(vib)   ...       0.25
freq.     631.68  E(vib)   ...       0.25
freq.     650.05  E(vib)   ...       0.24
freq.     665.85  E(vib)   ...       0.23
freq.     706.20  E(vib)   ...       0.21
freq.     717.11  E(vib)   ...       0.21
freq.     766.94  E(vib)   ...       0.19
freq.     773.76  E(vib)   ...       0.18
freq.     799.94  E(vib)   ...       0.17
freq.     804.68  E(vib)   ...       0.17
freq.     839.44  E(vib)   ...       0.16
freq.     862.69  E(vib)   ...       0.15
freq.     898.69  E(vib)   ...       0.14
freq.     933.56  E(vib)   ...       0.13
freq.     968.78  E(vib)   ...       0.12
freq.     983.93  E(vib)   ...       0.11
freq.     992.08  E(vib)   ...       0.11
freq.     999.24  E(vib)   ...       0.11
freq.    1003.01  E(vib)   ...       0.11
freq.    1022.90  E(vib)   ...       0.10
freq.    1025.58  E(vib)   ...       0.10
freq.    1043.22  E(vib)   ...       0.10
freq.    1055.12  E(vib)   ...       0.09
freq.    1064.31  E(vib)   ...       0.09
freq.    1097.70  E(vib)   ...       0.08
freq.    1103.68  E(vib)   ...       0.08
freq.    1108.04  E(vib)   ...       0.08
freq.    1143.17  E(vib)   ...       0.08
freq.    1143.90  E(vib)   ...       0.07
freq.    1150.64  E(vib)   ...       0.07
freq.    1155.18  E(vib)   ...       0.07
freq.    1163.11  E(vib)   ...       0.07
freq.    1173.63  E(vib)   ...       0.07
freq.    1195.92  E(vib)   ...       0.07
freq.    1204.77  E(vib)   ...       0.06
freq.    1236.30  E(vib)   ...       0.06
freq.    1245.34  E(vib)   ...       0.06
freq.    1250.73  E(vib)   ...       0.06
freq.    1267.60  E(vib)   ...       0.05
freq.    1271.64  E(vib)   ...       0.05
freq.    1293.64  E(vib)   ...       0.05
freq.    1299.32  E(vib)   ...       0.05
freq.    1335.37  E(vib)   ...       0.05
freq.    1345.21  E(vib)   ...       0.04
freq.    1370.69  E(vib)   ...       0.04
freq.    1390.30  E(vib)   ...       0.04
freq.    1393.11  E(vib)   ...       0.04
freq.    1396.53  E(vib)   ...       0.04
freq.    1416.86  E(vib)   ...       0.04
freq.    1428.81  E(vib)   ...       0.04
freq.    1448.02  E(vib)   ...       0.03
freq.    1452.96  E(vib)   ...       0.03
freq.    1459.06  E(vib)   ...       0.03
freq.    1470.67  E(vib)   ...       0.03
freq.    1475.12  E(vib)   ...       0.03
freq.    1477.65  E(vib)   ...       0.03
freq.    1479.01  E(vib)   ...       0.03
freq.    1481.38  E(vib)   ...       0.03
freq.    1488.16  E(vib)   ...       0.03
freq.    1498.87  E(vib)   ...       0.03
freq.    1500.97  E(vib)   ...       0.03
freq.    1516.56  E(vib)   ...       0.03
freq.    1540.06  E(vib)   ...       0.03
freq.    1647.93  E(vib)   ...       0.02
freq.    1671.72  E(vib)   ...       0.02
freq.    1679.45  E(vib)   ...       0.02
freq.    1769.99  E(vib)   ...       0.01
freq.    2999.11  E(vib)   ...       0.00
freq.    3006.15  E(vib)   ...       0.00
freq.    3045.87  E(vib)   ...       0.00
freq.    3051.13  E(vib)   ...       0.00
freq.    3051.95  E(vib)   ...       0.00
freq.    3061.56  E(vib)   ...       0.00
freq.    3092.23  E(vib)   ...       0.00
freq.    3094.46  E(vib)   ...       0.00
freq.    3121.37  E(vib)   ...       0.00
freq.    3123.97  E(vib)   ...       0.00
freq.    3134.95  E(vib)   ...       0.00
freq.    3141.10  E(vib)   ...       0.00
freq.    3142.14  E(vib)   ...       0.00
freq.    3160.13  E(vib)   ...       0.00
freq.    3184.20  E(vib)   ...       0.00
freq.    3191.51  E(vib)   ...       0.00
freq.    3201.25  E(vib)   ...       0.00
freq.    3207.04  E(vib)   ...       0.00
freq.    3213.45  E(vib)   ...       0.00
freq.    3269.30  E(vib)   ...       0.00
freq.    3291.68  E(vib)   ...       0.00

------------
INNER ENERGY
------------

The inner energy is: U= E(el) + E(ZPE) + E(vib) + E(rot) + E(trans)
    E(el)   - is the total energy from the electronic structure calculation
              = E(kin-el) + E(nuc-el) + E(el-el) + E(nuc-nuc)
    E(ZPE)  - the the zero temperature vibrational energy from the frequency calculation
    E(vib)  - the the finite temperature correction to E(ZPE) due to population
              of excited vibrational states
    E(rot)  - is the rotational thermal energy
    E(trans)- is the translational thermal energy

Summary of contributions to the inner energy U:
Electronic energy                ...   -861.18007821 Eh
Zero point energy                ...      0.34909239 Eh     219.06 kcal/mol
Thermal vibrational correction   ...      0.03439873 Eh      21.59 kcal/mol
Thermal rotational correction    ...      0.00205755 Eh       1.29 kcal/mol
Thermal translational correction ...      0.00205755 Eh       1.29 kcal/mol
-----------------------------------------------------------------------
Total thermal energy                   -860.79247200 Eh

Summary of corrections to the electronic energy:
(perhaps to be used in another calculation)
Total thermal correction                  0.03851382 Eh      24.17 kcal/mol

Rotational constants in cm-1:     0.017341     0.010917     0.008695

                             ****ORCA TERMINATED NORMALLY****
TOTAL RUN TIME: 0 days 0 hours 38 minutes 33 seconds 270 msec
