                         Program Version 5.0.4 -  RELEASE  -
|  1> %pal nprocs 24 end
|  2> ! TightSCF NMR TPSS def2-mTZVP RI
|  3>
|  4> * xyz 0 1
|  5> C        0.930949822      0.720888444      0.000011566
|  6> C       -0.358784752      1.121483134      0.000011566
|  7> N       -1.115610617     -0.030073247      0.000069499
|  8> C       -0.358784752     -1.155485532      0.000011566
|  9> N        0.902230300     -0.656812799     -0.000104196
| 10> H        1.845245136      1.291752231      0.000096329
| 11> H       -0.788709437      2.109959755      0.000112040
| 12> C       -2.558043419     -0.044720427     -0.000391271
| 13> H       -2.950223735      0.455513637      0.887659415
| 14> H       -2.949614555      0.453788529     -0.889687386
| 15> H       -2.880576549     -1.083417755      0.000464457
| 16> C        2.083405197     -1.484947285     -0.001505979
| 17> H        2.687881506     -1.294238155     -0.890858608
| 18> H        2.690084156     -1.294256748      0.886347711
| 19> H        1.762520770     -2.524077929     -0.001222429
| 20> H:        0.000000000      0.000000000      1.000000000
| 21> H:        0.000000000      0.000000000      0.000000000
| 22> H:        0.000000000      0.000000000      -1.000000000
| 23> *
| 24>
| 25>                          ****END OF INPUT****

CARTESIAN COORDINATES (ANGSTROEM)
---------------------------------
  C      0.930950    0.720888    0.000012
  C     -0.358785    1.121483    0.000012
  N     -1.115611   -0.030073    0.000069
  C     -0.358785   -1.155486    0.000012
  N      0.902230   -0.656813   -0.000104
  H      1.845245    1.291752    0.000096
  H     -0.788709    2.109960    0.000112
  C     -2.558043   -0.044720   -0.000391
  H     -2.950224    0.455514    0.887659
  H     -2.949615    0.453789   -0.889687
  H     -2.880577   -1.083418    0.000464
  C      2.083405   -1.484947   -0.001506
  H      2.687882   -1.294238   -0.890859
  H      2.690084   -1.294257    0.886348
  H      1.762521   -2.524078   -0.001222
  H      0.000000    0.000000    1.000000
  H      0.000000    0.000000    0.000000
  H      0.000000    0.000000   -1.000000

 Total Charge           Charge          ....    0
 Multiplicity           Mult            ....    1
 Number of Electrons    NEL             ....   52
 Basis Dimension        Dim             ....  166

ORBITAL ENERGIES
----------------

  NO   OCC          E(Eh)            E(eV)
   0   2.0000     -14.139464      -384.7544
   1   2.0000     -14.139436      -384.7536
   2   2.0000     -10.018367      -272.6136
   3   2.0000     -10.018332      -272.6127
   4   2.0000     -10.007533      -272.3188
   5   2.0000     -10.006951      -272.3030
   6   2.0000      -9.979300      -271.5506
   7   2.0000      -0.956500       -26.0277
   8   2.0000      -0.853704       -23.2305
   9   2.0000      -0.719283       -19.5727
  10   2.0000      -0.671143       -18.2627
  11   2.0000      -0.634609       -17.2686
  12   2.0000      -0.550658       -14.9842
  13   2.0000      -0.522109       -14.2073
  14   2.0000      -0.482002       -13.1160
  15   2.0000      -0.431028       -11.7289
  16   2.0000      -0.418631       -11.3915
  17   2.0000      -0.405868       -11.0442
  18   2.0000      -0.395966       -10.7748
  19   2.0000      -0.392341       -10.6761
  20   2.0000      -0.354038        -9.6339
  21   2.0000      -0.345512        -9.4019
  22   2.0000      -0.341207        -9.2847
  23   2.0000      -0.239396        -6.5143
  24   2.0000      -0.200397        -5.4531
  25   2.0000      -0.173703        -4.7267
  26   0.0000       0.003057         0.0832
  27   0.0000       0.017940         0.4882
  28   0.0000       0.034056         0.9267
  29   0.0000       0.044802         1.2191
  30   0.0000       0.064272         1.7489

MULLIKEN ATOMIC CHARGES
-----------------------
   0 C :   -0.065964
   1 C :   -0.065985
   2 N :    0.056781
   3 C :   -0.129813
   4 N :    0.056596
   5 H :    0.189429
   6 H :    0.189290
   7 C :   -0.440129
   8 H :    0.161443
   9 H :    0.161484
  10 H :    0.196101
  11 C :   -0.440067
  12 H :    0.161521
  13 H :    0.161485
  14 H :    0.196075
  15 H :   -0.019055
  16 H :   -0.350142
  17 H :   -0.019047
Sum of atomic charges:   -0.0000000

LOEWDIN ATOMIC CHARGES
----------------------
   0 C :   -0.033713
   1 C :   -0.033589
   2 N :   -0.021250
   3 C :   -0.040067
   4 N :   -0.021204
   5 H :    0.173400
   6 H :    0.173392
   7 C :   -0.274669
   8 H :    0.148450
   9 H :    0.148458
  10 H :    0.171422
  11 C :   -0.274620
  12 H :    0.148491
  13 H :    0.148480
  14 H :    0.171389
  15 H :   -0.128968
  16 H :   -0.326434
  17 H :   -0.128968

  Mayer bond orders larger than 0.100000
B(  0-C ,  1-C ) :   1.6276 B(  0-C ,  4-N ) :   1.0415 B(  0-C ,  5-H ) :   0.9277
B(  0-C , 16-H ) :   0.1841 B(  1-C ,  2-N ) :   1.0415 B(  1-C ,  6-H ) :   0.9279
B(  1-C , 16-H ) :   0.1844 B(  2-N ,  3-C ) :   1.1975 B(  2-N ,  7-C ) :   0.9015
B(  2-N , 16-H ) :   0.2771 B(  3-C ,  4-N ) :   1.1978 B(  3-C , 16-H ) :  -0.2675
B(  4-N , 11-C ) :   0.9015 B(  4-N , 16-H ) :   0.2765 B(  7-C ,  8-H ) :   0.9559
B(  7-C ,  9-H ) :   0.9559 B(  7-C , 10-H ) :   0.9489 B( 11-C , 12-H ) :   0.9559
B( 11-C , 13-H ) :   0.9559 B( 11-C , 14-H ) :   0.9489

FINAL SINGLE POINT ENERGY      -304.938251068128

DIPOLE MOMENT
-------------
                                X             Y             Z
Electronic contribution:      0.31042       1.00200       0.00366
Nuclear contribution   :     -0.02348      -0.07993      -0.00430
                        -----------------------------------------
Total Dipole Moment    :      0.28694       0.92207      -0.00064
                        -----------------------------------------
Magnitude (a.u.)       :      0.96569
Magnitude (Debye)      :      2.45458

Rotational constants in cm-1:     0.236876     0.070795     0.055651
Rotational constants in MHz :  7101.363496  2122.388361  1668.377055

CHEMICAL SHIELDING SUMMARY (ppm)
--------------------------------

  Nucleus  Element    Isotropic     Anisotropy
  -------  -------  ------------   ------------
      0       C           74.779         92.567
      1       C           74.785         92.653
      2       N           68.357        133.646
      3       C          -20.886       -247.916
      4       N           68.372        133.686
      5       H           25.793          3.253
      6       H           25.792          3.249
      7       C          151.244         61.440
      8       H           29.029          8.405
      9       H           29.029          8.408
     10       H           28.306          6.619
     11       C          151.246         61.433
     12       H           29.029          8.405
     13       H           29.028          8.402
     14       H           28.313          6.624
     15       H            9.452         23.966
     16       H           12.390         14.576
     17       H            9.452         23.965

                             ****ORCA TERMINATED NORMALLY****
TOTAL RUN TIME: 0 days 0 hours 0 minutes 15 seconds 418 msec
