                         Program Version 5.0.3 -  RELEASE  -
|  1> ! PBE0 def2-TZVP D4 CPCM(Toluene) Freq OPT
|  2> %maxcore 3000
|  3> %freq temp 433.15 end
|  4>
|  5> * xyz 0 1
|  6> C       -1.064001486      0.592853527     -0.664297931
|  7> C       -1.064001486     -0.623039763      0.160732501
|  8> N       -1.064001486     -0.277444393      1.464543065
|  9> C       -1.064001486      1.224388523      1.574910400
| 10> N       -1.064001486      1.676719177      0.138567811
| 11> H       -1.064001486      0.597467324     -1.748847924
| 12> H       -1.064001486     -1.632552753     -0.235693404
| 13> C       -1.064001486     -1.216011379      2.595910385
| 14> H       -2.084693486     -1.477633207      2.897324244
| 15> H       -0.545941486     -2.147667416      2.341472951
| 16> H       -0.561369486     -0.787032742      3.470237025
| 17> C       -1.064001486      3.074808348     -0.315576077
| 18> H       -0.043309486      3.451556975     -0.447321161
| 19> H       -1.582061486      3.182597517     -1.275317122
| 20> H       -1.566633486      3.728771965      0.406089588
| 21> **                         ****END OF INPUT****
 Total Charge           Charge          ....    0
 Multiplicity           Mult            ....    1
 Number of Electrons    NEL             ....   52
Dispersion correction           -0.010308039
FINAL SINGLE POINT ENERGY      -304.517194211345
Dispersion correction            ... Starting D4
Dispersion correction           -0.010585569
FINAL SINGLE POINT ENERGY      -304.553858705613
Dispersion correction            ... Starting D4
Dispersion correction           -0.010769944
FINAL SINGLE POINT ENERGY      -304.561570234064
Dispersion correction            ... Starting D4
FINAL SINGLE POINT ENERGY      -304.563605676447
FINAL SINGLE POINT ENERGY      -304.563990137604
FINAL SINGLE POINT ENERGY      -304.564284583261
FINAL SINGLE POINT ENERGY      -304.564383574924
FINAL SINGLE POINT ENERGY      -304.564536283240
FINAL SINGLE POINT ENERGY      -304.564706553997
FINAL SINGLE POINT ENERGY      -304.564888831270
FINAL SINGLE POINT ENERGY      -304.565005719207
FINAL SINGLE POINT ENERGY      -304.565036070299
Dispersion correction           -0.010707122
FINAL SINGLE POINT ENERGY      -304.565042189623
Dispersion correction            ... Starting D4
Dispersion correction           -0.010707424
FINAL SINGLE POINT ENERGY      -304.565043636837
Dispersion correction            ... Starting D4
                    ***********************HURRAY********************

CARTESIAN COORDINATES (ANGSTROEM)
---------------------------------
  C     -1.054186    0.507966   -0.683721
  C     -1.074795   -0.609673    0.074144
  N     -1.080724   -0.181912    1.384064
  C     -1.064744    1.169640    1.494828
  N     -1.048504    1.566653    0.198363
  H     -1.043460    0.632288   -1.754339
  H     -1.085503   -1.650321   -0.206635
  C     -1.101167   -1.070109    2.520488
  H     -1.996939   -1.694647    2.507289
  H     -0.219820   -1.714987    2.523341
  H     -1.102276   -0.459448    3.420487
  C     -1.026249    2.950697   -0.207642
  H     -0.128970    3.167843   -0.791088
  H     -1.905895    3.191416   -0.808423
  H     -1.026789    3.562375    0.691577

 Multiplicity           Mult            ....    1
 Number of Electrons    NEL             ....   52
 Basis Dimension        Dim             ....  265

ORBITAL ENERGIES
----------------

  NO   OCC          E(Eh)            E(eV)
   0   2.0000     -14.430265      -392.6675
   1   2.0000     -14.430244      -392.6669
   2   2.0000     -10.247800      -278.8568
   3   2.0000     -10.247792      -278.8566
   4   2.0000     -10.247059      -278.8367
   5   2.0000     -10.246238      -278.8143
   6   2.0000     -10.228005      -278.3182
   7   2.0000      -1.056218       -28.7412
   8   2.0000      -0.943606       -25.6768
   9   2.0000      -0.798538       -21.7293
  10   2.0000      -0.749107       -20.3842
  11   2.0000      -0.703820       -19.1519
  12   2.0000      -0.616693       -16.7811
  13   2.0000      -0.586578       -15.9616
  14   2.0000      -0.539716       -14.6864
  15   2.0000      -0.491317       -13.3694
  16   2.0000      -0.469507       -12.7759
  17   2.0000      -0.456090       -12.4108
  18   2.0000      -0.447285       -12.1712
  19   2.0000      -0.446732       -12.1562
  20   2.0000      -0.401448       -10.9239
  21   2.0000      -0.392605       -10.6833
  22   2.0000      -0.390576       -10.6281
  23   2.0000      -0.285720        -7.7748
  24   2.0000      -0.243232        -6.6187
  25   2.0000      -0.232404        -6.3240
  26   0.0000       0.029117         0.7923
  27   0.0000       0.040943         1.1141
  28   0.0000       0.063449         1.7265
  29   0.0000       0.066648         1.8136
  30   0.0000       0.091953         2.5022

MULLIKEN ATOMIC CHARGES
-----------------------
   0 C :   -0.156666
   1 C :   -0.155746
   2 N :    0.048520
   3 C :   -0.361746
   4 N :    0.048616
   5 H :    0.164622
   6 H :    0.164724
   7 C :   -0.324790
   8 H :    0.144181
   9 H :    0.144179
  10 H :    0.160260
  11 C :   -0.325122
  12 H :    0.144324
  13 H :    0.144324
  14 H :    0.160321
Sum of atomic charges:   -0.0000000

LOEWDIN ATOMIC CHARGES
----------------------
   0 C :   -0.226573
   1 C :   -0.226528
   2 N :    0.183681
   3 C :   -0.391486
   4 N :    0.183695
   5 H :    0.144260
   6 H :    0.144258
   7 C :   -0.280382
   8 H :    0.122077
   9 H :    0.122076
  10 H :    0.130492
  11 C :   -0.280289
  12 H :    0.122114
  13 H :    0.122114
  14 H :    0.130493

  Mayer bond orders larger than 0.100000
B(  0-C ,  1-C ) :   1.6863 B(  0-C ,  4-N ) :   1.1315 B(  0-C ,  5-H ) :   0.9576
B(  1-C ,  2-N ) :   1.1319 B(  1-C ,  6-H ) :   0.9574 B(  2-N ,  3-C ) :   1.1725
B(  2-N ,  7-C ) :   0.9206 B(  3-C ,  4-N ) :   1.1733 B(  4-N , 11-C ) :   0.9202
B(  7-C ,  8-H ) :   0.9639 B(  7-C ,  9-H ) :   0.9639 B(  7-C , 10-H ) :   0.9656
B( 11-C , 12-H ) :   0.9639 B( 11-C , 13-H ) :   0.9639 B( 11-C , 14-H ) :   0.9656

Dispersion correction           -0.010707542
FINAL SINGLE POINT ENERGY      -304.565043864371

DIPOLE MOMENT
-------------
                                X             Y             Z
Electronic contribution:     -0.00364      -0.74542      -1.09884
Nuclear contribution   :      0.00443       0.04858       0.06945
                        -----------------------------------------
Total Dipole Moment    :      0.00078      -0.69685      -1.02939
                        -----------------------------------------
Magnitude (a.u.)       :      1.24307
Magnitude (Debye)      :      3.15964

Dispersion correction in the Hessian             ... Starting D4

VIBRATIONAL FREQUENCIES
-----------------------

Scaling factor for frequencies =  1.000000000  (already applied!)

   0:         0.00 cm**-1
   1:         0.00 cm**-1
   2:         0.00 cm**-1
   3:         0.00 cm**-1
   4:         0.00 cm**-1
   5:         0.00 cm**-1
   6:        99.93 cm**-1
   7:       100.87 cm**-1
   8:       194.52 cm**-1
   9:       271.54 cm**-1
  10:       289.68 cm**-1
  11:       436.82 cm**-1
  12:       627.95 cm**-1
  13:       633.58 cm**-1
  14:       636.37 cm**-1
  15:       730.17 cm**-1
  16:       759.50 cm**-1
  17:       828.52 cm**-1
  18:      1018.28 cm**-1
  19:      1029.56 cm**-1
  20:      1078.36 cm**-1
  21:      1084.44 cm**-1
  22:      1103.56 cm**-1
  23:      1149.68 cm**-1
  24:      1151.66 cm**-1
  25:      1239.36 cm**-1
  26:      1352.79 cm**-1
  27:      1375.28 cm**-1
  28:      1414.39 cm**-1
  29:      1425.70 cm**-1
  30:      1438.71 cm**-1
  31:      1474.59 cm**-1
  32:      1475.84 cm**-1
  33:      1482.43 cm**-1
  34:      1493.69 cm**-1
  35:      1498.41 cm**-1
  36:      1622.36 cm**-1
  37:      3056.80 cm**-1
  38:      3057.51 cm**-1
  39:      3122.44 cm**-1
  40:      3122.84 cm**-1
  41:      3175.54 cm**-1
  42:      3176.14 cm**-1
  43:      3271.28 cm**-1
  44:      3292.30 cm**-1

IR SPECTRUM
-----------

 Mode   freq       eps      Int      T**2         TX        TY        TZ
       cm**-1   L/(mol*cm) km/mol    a.u.
----------------------------------------------------------------------------
  6:     99.93   0.000006    0.03  0.000020  ( 0.004499 -0.000167 -0.000025)
  7:    100.87   0.000030    0.15  0.000094  (-0.009713  0.000079 -0.000098)
  8:    194.52   0.005106   25.80  0.008192  ( 0.090498 -0.001243  0.000684)
  9:    271.54   0.000000    0.00  0.000000  (-0.000103 -0.000174 -0.000157)
 10:    289.68   0.001112    5.62  0.001198  ( 0.000013 -0.019356 -0.028689)
 11:    436.82   0.002679   13.54  0.001914  (-0.000665 -0.036197  0.024555)
 12:    627.95   0.000547    2.76  0.000272  ( 0.000046  0.009260  0.013637)
 13:    633.58   0.000000    0.00  0.000000  (-0.000003  0.000073  0.000148)
 14:    636.37   0.000000    0.00  0.000000  ( 0.000135 -0.000061  0.000029)
 15:    730.17   0.016627   84.03  0.007106  ( 0.084290 -0.001044  0.000688)
 16:    759.50   0.005391   27.24  0.002215  (-0.000756 -0.038874  0.026521)
 17:    828.52   0.000000    0.00  0.000000  ( 0.000001  0.000035 -0.000030)
 18:   1018.28   0.000421    2.13  0.000129  (-0.000159 -0.009387  0.006385)
 19:   1029.56   0.000013    0.07  0.000004  ( 0.000012 -0.001192 -0.001597)
 20:   1078.36   0.000262    1.32  0.000076  ( 0.000013  0.005100  0.007058)
 21:   1084.44   0.000149    0.75  0.000043  (-0.000087 -0.005172  0.004022)
 22:   1103.56   0.001907    9.64  0.000539  ( 0.000015 -0.012867 -0.019334)
 23:   1149.68   0.000000    0.00  0.000000  ( 0.000079 -0.000091  0.000064)
 24:   1151.66   0.000001    0.01  0.000000  ( 0.000556 -0.000023  0.000026)
 25:   1239.36   0.011995   60.62  0.003020  ( 0.000846  0.045485 -0.030833)
 26:   1352.79   0.000525    2.65  0.000121  ( 0.000159  0.009141 -0.006122)
 27:   1375.28   0.000204    1.03  0.000046  ( 0.000017  0.003771  0.005670)
 28:   1414.39   0.000131    0.66  0.000029  (-0.000002 -0.003000 -0.004469)
 29:   1425.70   0.005232   26.44  0.001145  ( 0.000473  0.028146 -0.018779)
 30:   1438.71   0.000797    4.03  0.000173  (-0.000051  0.006829  0.011236)
 31:   1474.59   0.000274    1.38  0.000058  (-0.007610 -0.000105  0.000058)
 32:   1475.84   0.004441   22.44  0.000939  ( 0.030640 -0.000403  0.000198)
 33:   1482.43   0.008006   40.46  0.001685  (-0.000584 -0.033590  0.023595)
 34:   1493.69   0.006649   33.60  0.001389  ( 0.000065  0.022136  0.029987)
 35:   1498.41   0.001103    5.57  0.000230  (-0.000212 -0.011067  0.010353)
 36:   1622.36   0.000080    0.40  0.000015  (-0.000010  0.002257  0.003211)
 37:   3056.80   0.024077  121.68  0.002458  (-0.000769 -0.041012  0.027846)
 38:   3057.51   0.000087    0.44  0.000009  ( 0.000002 -0.002142  0.002074)
 39:   3122.44   0.003937   19.89  0.000393  ( 0.019833 -0.000287  0.000198)
 40:   3122.84   0.004547   22.98  0.000454  (-0.021315  0.000232 -0.000182)
 41:   3175.54   0.001026    5.18  0.000101  (-0.000019 -0.006756 -0.007426)
 42:   3176.14   0.000479    2.42  0.000047  (-0.000020  0.002098  0.006531)
 43:   3271.28   0.000512    2.59  0.000049  (-0.000112 -0.005838  0.003840)
 44:   3292.30   0.000032    0.16  0.000003  ( 0.000006  0.000981  0.001436)

--------------------------
THERMOCHEMISTRY AT 433.15K
--------------------------

Temperature         ... 433.15 K
Pressure            ... 1.00 atm
Total Mass          ... 96.13 AMU

Throughout the following assumptions are being made:
  (1) The electronic state is orbitally nondegenerate
  (2) There are no thermally accessible electronically excited states
  (3) Hindered rotations indicated by low frequency modes are not
      treated as such but are treated as vibrations and this may
      cause some error
  (4) All equations used are the standard statistical mechanics
      equations for an ideal gas
  (5) All vibrations are strictly harmonic

freq.      99.93  E(vib)   ...       0.73
freq.     100.87  E(vib)   ...       0.72
freq.     194.52  E(vib)   ...       0.61
freq.     271.54  E(vib)   ...       0.53
freq.     289.68  E(vib)   ...       0.51
freq.     436.82  E(vib)   ...       0.38
freq.     627.95  E(vib)   ...       0.25
freq.     633.58  E(vib)   ...       0.25
freq.     636.37  E(vib)   ...       0.25
freq.     730.17  E(vib)   ...       0.20
freq.     759.50  E(vib)   ...       0.19
freq.     828.52  E(vib)   ...       0.16
freq.    1018.28  E(vib)   ...       0.10
freq.    1029.56  E(vib)   ...       0.10
freq.    1078.36  E(vib)   ...       0.09
freq.    1084.44  E(vib)   ...       0.09
freq.    1103.56  E(vib)   ...       0.08
freq.    1149.68  E(vib)   ...       0.07
freq.    1151.66  E(vib)   ...       0.07
freq.    1239.36  E(vib)   ...       0.06
freq.    1352.79  E(vib)   ...       0.04
freq.    1375.28  E(vib)   ...       0.04
freq.    1414.39  E(vib)   ...       0.04
freq.    1425.70  E(vib)   ...       0.04
freq.    1438.71  E(vib)   ...       0.03
freq.    1474.59  E(vib)   ...       0.03
freq.    1475.84  E(vib)   ...       0.03
freq.    1482.43  E(vib)   ...       0.03
freq.    1493.69  E(vib)   ...       0.03
freq.    1498.41  E(vib)   ...       0.03
freq.    1622.36  E(vib)   ...       0.02
freq.    3056.80  E(vib)   ...       0.00
freq.    3057.51  E(vib)   ...       0.00
freq.    3122.44  E(vib)   ...       0.00
freq.    3122.84  E(vib)   ...       0.00
freq.    3175.54  E(vib)   ...       0.00
freq.    3176.14  E(vib)   ...       0.00
freq.    3271.28  E(vib)   ...       0.00
freq.    3292.30  E(vib)   ...       0.00

------------
INNER ENERGY
------------

The inner energy is: U= E(el) + E(ZPE) + E(vib) + E(rot) + E(trans)
    E(el)   - is the total energy from the electronic structure calculation
              = E(kin-el) + E(nuc-el) + E(el-el) + E(nuc-nuc)
    E(ZPE)  - the the zero temperature vibrational energy from the frequency calculation
    E(vib)  - the the finite temperature correction to E(ZPE) due to population
              of excited vibrational states
    E(rot)  - is the rotational thermal energy
    E(trans)- is the translational thermal energy

Summary of contributions to the inner energy U:
Electronic energy                ...   -304.56504386 Eh
Zero point energy                ...      0.12710666 Eh      79.76 kcal/mol
Thermal vibrational correction   ...      0.00929625 Eh       5.83 kcal/mol
Thermal rotational correction    ...      0.00205755 Eh       1.29 kcal/mol
Thermal translational correction ...      0.00205755 Eh       1.29 kcal/mol
-----------------------------------------------------------------------
Total thermal energy                   -304.42452586 Eh

Summary of corrections to the electronic energy:
(perhaps to be used in another calculation)
Total thermal correction                  0.01341135 Eh       8.42 kcal/mol
Non-thermal (ZPE) correction              0.12710666 Eh      79.76 kcal/mol
-----------------------------------------------------------------------
Total correction                          0.14051800 Eh      88.18 kcal/mol

--------
ENTHALPY
--------

The enthalpy is H = U + kB*T
                kB is Boltzmann's constant
Total free energy                 ...   -304.42452586 Eh
Thermal Enthalpy correction       ...      0.00137174 Eh       0.86 kcal/mol
-----------------------------------------------------------------------
Total Enthalpy                    ...   -304.42315412 Eh

Note: Only C1 symmetry has been detected, increase convergence thresholds
      if your molecule has a higher symmetry. Symmetry factor of 1.0 is
      used for the rotational entropy correction.

Note: Rotational entropy computed according to Herzberg
Infrared and Raman Spectra, Chapter V,1, Van Nostrand Reinhold, 1945
Point Group:  C1, Symmetry Number:   1
Rotational constants in cm-1:     0.236850     0.070800     0.055653

Vibrational entropy computed according to the QRRHO of S. Grimme
Chem.Eur.J. 2012 18 9955

-------
ENTROPY
-------

The entropy contributions are T*S = T*(S(el)+S(vib)+S(rot)+S(trans))
     S(el)   - electronic entropy
     S(vib)  - vibrational entropy
     S(rot)  - rotational entropy
     S(trans)- translational entropy
The entropies will be listed as multiplied by the temperature to get
units of energy

Electronic entropy                ...      0.00000000 Eh      0.00 kcal/mol
Vibrational entropy               ...      0.01612468 Eh     10.12 kcal/mol
Rotational entropy                ...      0.01937077 Eh     12.16 kcal/mol
Translational entropy             ...      0.02861563 Eh     17.96 kcal/mol
-----------------------------------------------------------------------
Final entropy term                ...      0.06411108 Eh     40.23 kcal/mol

In case the symmetry of your molecule has not been determined correctly
or in case you have a reason to use a different symmetry number we print
out the resulting rotational entropy values for sn=1,12 :
 --------------------------------------------------------
|  sn= 1 | S(rot)=       0.01937077 Eh     12.16 kcal/mol|
|  sn= 2 | S(rot)=       0.01841998 Eh     11.56 kcal/mol|
|  sn= 3 | S(rot)=       0.01786380 Eh     11.21 kcal/mol|
|  sn= 4 | S(rot)=       0.01746919 Eh     10.96 kcal/mol|
|  sn= 5 | S(rot)=       0.01716310 Eh     10.77 kcal/mol|
|  sn= 6 | S(rot)=       0.01691301 Eh     10.61 kcal/mol|
|  sn= 7 | S(rot)=       0.01670157 Eh     10.48 kcal/mol|
|  sn= 8 | S(rot)=       0.01651840 Eh     10.37 kcal/mol|
|  sn= 9 | S(rot)=       0.01635684 Eh     10.26 kcal/mol|
|  sn=10 | S(rot)=       0.01621231 Eh     10.17 kcal/mol|
|  sn=11 | S(rot)=       0.01608158 Eh     10.09 kcal/mol|
|  sn=12 | S(rot)=       0.01596222 Eh     10.02 kcal/mol|
 --------------------------------------------------------

-------------------
GIBBS FREE ENERGY
-------------------

The Gibbs free energy is G = H - T*S

Total enthalpy                    ...   -304.42315412 Eh
Total entropy correction          ...     -0.06411108 Eh    -40.23 kcal/mol
-----------------------------------------------------------------------

                             ****ORCA TERMINATED NORMALLY****
TOTAL RUN TIME: 0 days 1 hours 12 minutes 30 seconds 3 msec
